<?xml version="1.0" encoding="UTF-8"?>

<!-- generated on 2022-08-16 17:15:22 by Eclipse SUMO GUI Version 1.13.0
<configuration xmlns:xsi="http://www.w3.org/2001/XMLSchema-instance" xsi:noNamespaceSchemaLocation="http://sumo.dlr.de/xsd/sumoConfiguration.xsd">

    <input>
        <net-file value="data/cross.net.xml"/>
        <route-files value="data/cross.rou.xml"/>
        <additional-files value="data/cross.det.xml"/>
    </input>

    <output>
        <tripinfo-output value="tripinfo.xml"/>
    </output>

    <time>
        <begin value="0"/>
    </time>

    <report>
        <verbose value="true"/>
        <no-step-log value="true"/>
    </report>

    <traci_server>
        <remote-port value="53401"/>
    </traci_server>

</configuration>
-->

<tripinfos xmlns:xsi="http://www.w3.org/2001/XMLSchema-instance" xsi:noNamespaceSchemaLocation="http://sumo.dlr.de/xsd/tripinfo_file.xsd">
    <tripinfo id="v_0" depart="1.00" departLane="52i_0" departPos="5.10" departSpeed="0.00" departDelay="0.00" arrival="92.00" arrivalLane="51o_0" arrivalPos="10.00" arrivalSpeed="11.51" duration="91.00" routeLength="1014.90" waitingTime="0.00" waitingCount="0" stopTime="0.00" timeLoss="16.36" rerouteNo="0" devices="tripinfo_v_0" vType="type" speedFactor="1.06" vaporized=""/>
    <tripinfo id="v_3" depart="8.00" departLane="54i_0" departPos="5.10" departSpeed="0.00" departDelay="1.00" arrival="100.00" arrivalLane="51o_0" arrivalPos="10.00" arrivalSpeed="11.69" duration="92.00" routeLength="1009.73" waitingTime="0.00" waitingCount="0" stopTime="0.00" timeLoss="18.92" rerouteNo="0" devices="tripinfo_v_3" vType="type" speedFactor="1.08" vaporized=""/>
    <tripinfo id="v_1" depart="2.00" departLane="54i_0" departPos="5.10" departSpeed="0.00" departDelay="0.00" arrival="101.00" arrivalLane="53o_0" arrivalPos="10.00" arrivalSpeed="10.23" duration="99.00" routeLength="1014.90" waitingTime="0.00" waitingCount="0" stopTime="0.00" timeLoss="18.49" rerouteNo="0" devices="tripinfo_v_1" vType="type" speedFactor="0.94" vaporized=""/>
    <tripinfo id="v_7" depart="19.00" departLane="52i_0" departPos="5.10" departSpeed="0.00" departDelay="0.00" arrival="119.00" arrivalLane="53o_0" arrivalPos="10.00" arrivalSpeed="9.72" duration="100.00" routeLength="1009.73" waitingTime="0.00" waitingCount="0" stopTime="0.00" timeLoss="17.11" rerouteNo="0" devices="tripinfo_v_7" vType="type" speedFactor="0.89" vaporized=""/>
    <tripinfo id="v_5" depart="15.00" departLane="54i_0" departPos="5.10" departSpeed="0.00" departDelay="0.00" arrival="120.00" arrivalLane="51o_0" arrivalPos="10.00" arrivalSpeed="9.23" duration="105.00" routeLength="1009.73" waitingTime="0.00" waitingCount="0" stopTime="0.00" timeLoss="17.16" rerouteNo="0" devices="tripinfo_v_5" vType="type" speedFactor="0.83" vaporized=""/>
    <tripinfo id="v_10" depart="34.00" departLane="52i_0" departPos="5.10" departSpeed="0.00" departDelay="0.00" arrival="124.00" arrivalLane="54o_0" arrivalPos="10.00" arrivalSpeed="12.06" duration="90.00" routeLength="1015.10" waitingTime="0.00" waitingCount="0" stopTime="0.00" timeLoss="17.54" rerouteNo="0" devices="tripinfo_v_10" vType="type" speedFactor="1.09" vaporized=""/>
    <tripinfo id="v_9" depart="24.00" departLane="52i_0" departPos="5.10" departSpeed="0.00" departDelay="3.00" arrival="125.00" arrivalLane="53o_0" arrivalPos="10.00" arrivalSpeed="9.13" duration="101.00" routeLength="1009.73" waitingTime="0.00" waitingCount="0" stopTime="0.00" timeLoss="16.84" rerouteNo="0" devices="tripinfo_v_9" vType="type" speedFactor="0.86" vaporized=""/>
    <tripinfo id="v_11" depart="42.00" departLane="52i_0" departPos="5.10" departSpeed="0.00" departDelay="0.00" arrival="136.00" arrivalLane="53o_0" arrivalPos="10.00" arrivalSpeed="11.16" duration="94.00" routeLength="1009.73" waitingTime="0.00" waitingCount="0" stopTime="0.00" timeLoss="17.90" rerouteNo="0" devices="tripinfo_v_11" vType="type" speedFactor="1.03" vaporized=""/>
    <tripinfo id="v_12" depart="47.00" departLane="52i_0" departPos="5.10" departSpeed="0.00" departDelay="4.00" arrival="138.00" arrivalLane="51o_0" arrivalPos="10.00" arrivalSpeed="11.57" duration="91.00" routeLength="1014.90" waitingTime="0.00" waitingCount="0" stopTime="0.00" timeLoss="15.82" rerouteNo="0" devices="tripinfo_v_12" vType="type" speedFactor="1.05" vaporized=""/>
    <tripinfo id="v_13" depart="46.00" departLane="51i_0" departPos="5.10" departSpeed="0.00" departDelay="0.00" arrival="146.00" arrivalLane="52o_0" arrivalPos="10.00" arrivalSpeed="12.43" duration="100.00" routeLength="1009.73" waitingTime="4.00" waitingCount="1" stopTime="0.00" timeLoss="28.51" rerouteNo="0" devices="tripinfo_v_13" vType="type" speedFactor="1.12" vaporized=""/>
    <tripinfo id="v_14" depart="51.00" departLane="51i_0" departPos="5.10" departSpeed="0.00" departDelay="4.00" arrival="153.00" arrivalLane="54o_0" arrivalPos="10.00" arrivalSpeed="11.00" duration="102.00" routeLength="1014.90" waitingTime="1.00" waitingCount="1" stopTime="0.00" timeLoss="24.39" rerouteNo="0" devices="tripinfo_v_14" vType="type" speedFactor="0.99" vaporized=""/>
    <tripinfo id="v_17" depart="59.00" departLane="51i_0" departPos="5.10" departSpeed="0.00" departDelay="0.00" arrival="157.00" arrivalLane="53o_0" arrivalPos="10.00" arrivalSpeed="10.10" duration="98.00" routeLength="1015.10" waitingTime="0.00" waitingCount="0" stopTime="0.00" timeLoss="18.72" rerouteNo="0" devices="tripinfo_v_17" vType="type" speedFactor="0.94" vaporized=""/>
    <tripinfo id="v_18" depart="64.00" departLane="51i_0" departPos="5.10" departSpeed="0.00" departDelay="3.00" arrival="163.00" arrivalLane="52o_0" arrivalPos="10.00" arrivalSpeed="10.07" duration="99.00" routeLength="1009.73" waitingTime="0.00" waitingCount="0" stopTime="0.00" timeLoss="18.35" rerouteNo="0" devices="tripinfo_v_18" vType="type" speedFactor="0.94" vaporized=""/>
    <tripinfo id="v_2" depart="6.00" departLane="53i_0" departPos="5.10" departSpeed="0.00" departDelay="0.00" arrival="167.00" arrivalLane="52o_0" arrivalPos="10.00" arrivalSpeed="11.06" duration="161.00" routeLength="1014.90" waitingTime="55.00" waitingCount="2" stopTime="0.00" timeLoss="84.22" rerouteNo="0" devices="tripinfo_v_2" vType="type" speedFactor="1.01" vaporized=""/>
    <tripinfo id="v_4" depart="11.00" departLane="53i_0" departPos="5.10" departSpeed="0.00" departDelay="3.00" arrival="168.00" arrivalLane="51o_0" arrivalPos="10.00" arrivalSpeed="11.35" duration="157.00" routeLength="1015.10" waitingTime="50.00" waitingCount="2" stopTime="0.00" timeLoss="81.96" rerouteNo="0" devices="tripinfo_v_4" vType="type" speedFactor="1.03" vaporized=""/>
    <tripinfo id="v_6" depart="17.00" departLane="53i_0" departPos="5.10" departSpeed="0.00" departDelay="0.00" arrival="170.00" arrivalLane="52o_0" arrivalPos="10.00" arrivalSpeed="11.42" duration="153.00" routeLength="1014.90" waitingTime="44.00" waitingCount="2" stopTime="0.00" timeLoss="77.33" rerouteNo="0" devices="tripinfo_v_6" vType="type" speedFactor="1.05" vaporized=""/>
    <tripinfo id="v_8" depart="22.00" departLane="53i_0" departPos="5.10" departSpeed="0.00" departDelay="2.00" arrival="176.00" arrivalLane="52o_0" arrivalPos="10.00" arrivalSpeed="10.25" duration="154.00" routeLength="1014.90" waitingTime="39.00" waitingCount="2" stopTime="0.00" timeLoss="73.30" rerouteNo="0" devices="tripinfo_v_8" vType="type" speedFactor="0.94" vaporized=""/>
    <tripinfo id="v_20" depart="66.00" departLane="53i_0" departPos="5.10" departSpeed="0.00" departDelay="0.00" arrival="177.00" arrivalLane="51o_0" arrivalPos="10.00" arrivalSpeed="11.06" duration="111.00" routeLength="1015.10" waitingTime="8.00" waitingCount="1" stopTime="0.00" timeLoss="35.61" rerouteNo="0" devices="tripinfo_v_20" vType="type" speedFactor="1.02" vaporized=""/>
    <tripinfo id="v_15" depart="48.00" departLane="53i_0" departPos="5.10" departSpeed="0.00" departDelay="0.00" arrival="179.00" arrivalLane="54o_0" arrivalPos="10.00" arrivalSpeed="10.27" duration="131.00" routeLength="1009.73" waitingTime="17.00" waitingCount="2" stopTime="0.00" timeLoss="50.29" rerouteNo="0" devices="tripinfo_v_15" vType="type" speedFactor="0.93" vaporized=""/>
    <tripinfo id="v_26" depart="84.00" departLane="51i_0" departPos="5.10" departSpeed="0.00" departDelay="0.00" arrival="190.00" arrivalLane="54o_0" arrivalPos="10.00" arrivalSpeed="10.00" duration="106.00" routeLength="1014.90" waitingTime="1.00" waitingCount="1" stopTime="0.00" timeLoss="24.28" rerouteNo="0" devices="tripinfo_v_26" vType="type" speedFactor="0.92" vaporized=""/>
    <tripinfo id="v_30" depart="96.00" departLane="51i_0" departPos="5.10" departSpeed="0.00" departDelay="0.00" arrival="194.00" arrivalLane="52o_0" arrivalPos="10.00" arrivalSpeed="12.82" duration="98.00" routeLength="1009.73" waitingTime="2.00" waitingCount="1" stopTime="0.00" timeLoss="27.77" rerouteNo="0" devices="tripinfo_v_30" vType="type" speedFactor="1.18" vaporized=""/>
    <tripinfo id="v_16" depart="56.00" departLane="54i_0" departPos="5.10" departSpeed="0.00" departDelay="0.00" arrival="195.00" arrivalLane="51o_0" arrivalPos="10.00" arrivalSpeed="9.70" duration="139.00" routeLength="1009.73" waitingTime="31.00" waitingCount="1" stopTime="0.00" timeLoss="55.84" rerouteNo="0" devices="tripinfo_v_16" vType="type" speedFactor="0.88" vaporized=""/>
    <tripinfo id="v_31" depart="101.00" departLane="51i_0" departPos="5.10" departSpeed="0.00" departDelay="4.00" arrival="197.00" arrivalLane="52o_0" arrivalPos="10.00" arrivalSpeed="12.72" duration="96.00" routeLength="1009.73" waitingTime="0.00" waitingCount="0" stopTime="0.00" timeLoss="24.73" rerouteNo="0" devices="tripinfo_v_31" vType="type" speedFactor="1.15" vaporized=""/>
    <tripinfo id="v_21" depart="73.00" departLane="53i_0" departPos="5.10" departSpeed="0.00" departDelay="0.00" arrival="199.00" arrivalLane="54o_0" arrivalPos="10.00" arrivalSpeed="11.09" duration="126.00" routeLength="1009.73" waitingTime="14.00" waitingCount="2" stopTime="0.00" timeLoss="49.27" rerouteNo="0" devices="tripinfo_v_21" vType="type" speedFactor="1.01" vaporized=""/>
    <tripinfo id="v_32" depart="99.00" departLane="52i_0" departPos="5.10" departSpeed="0.00" departDelay="0.00" arrival="210.00" arrivalLane="53o_0" arrivalPos="10.00" arrivalSpeed="11.03" duration="111.00" routeLength="1009.73" waitingTime="10.00" waitingCount="1" stopTime="0.00" timeLoss="34.60" rerouteNo="0" devices="tripinfo_v_32" vType="type" speedFactor="1.01" vaporized=""/>
    <tripinfo id="v_33" depart="104.00" departLane="52i_0" departPos="5.10" departSpeed="0.00" departDelay="0.00" arrival="212.00" arrivalLane="53o_0" arrivalPos="10.00" arrivalSpeed="12.23" duration="108.00" routeLength="1009.73" waitingTime="7.00" waitingCount="1" stopTime="0.00" timeLoss="37.96" rerouteNo="0" devices="tripinfo_v_33" vType="type" speedFactor="1.17" vaporized=""/>
    <tripinfo id="v_19" depart="65.00" departLane="54i_0" departPos="5.10" departSpeed="0.00" departDelay="0.00" arrival="214.00" arrivalLane="53o_0" arrivalPos="10.00" arrivalSpeed="12.53" duration="149.00" routeLength="1014.90" waitingTime="42.00" waitingCount="3" stopTime="0.00" timeLoss="77.88" rerouteNo="0" devices="tripinfo_v_19" vType="type" speedFactor="1.16" vaporized=""/>
    <tripinfo id="v_24" depart="79.00" departLane="53i_0" departPos="5.10" departSpeed="0.00" departDelay="0.00" arrival="216.00" arrivalLane="52o_0" arrivalPos="10.00" arrivalSpeed="8.81" duration="137.00" routeLength="1014.90" waitingTime="12.00" waitingCount="2" stopTime="0.00" timeLoss="48.48" rerouteNo="0" devices="tripinfo_v_24" vType="type" speedFactor="0.83" vaporized=""/>
    <tripinfo id="v_36" depart="110.00" departLane="51i_0" departPos="5.10" departSpeed="0.00" departDelay="0.00" arrival="226.00" arrivalLane="53o_0" arrivalPos="10.00" arrivalSpeed="10.70" duration="116.00" routeLength="1015.10" waitingTime="14.00" waitingCount="1" stopTime="0.00" timeLoss="38.37" rerouteNo="0" devices="tripinfo_v_36" vType="type" speedFactor="0.97" vaporized=""/>
    <tripinfo id="v_25" depart="84.00" departLane="53i_0" departPos="5.10" departSpeed="0.00" departDelay="2.00" arrival="232.00" arrivalLane="51o_0" arrivalPos="10.00" arrivalSpeed="9.52" duration="148.00" routeLength="1015.10" waitingTime="26.00" waitingCount="2" stopTime="0.00" timeLoss="64.55" rerouteNo="0" devices="tripinfo_v_25" vType="type" speedFactor="0.87" vaporized=""/>
    <tripinfo id="v_34" depart="109.00" departLane="52i_0" departPos="5.10" departSpeed="0.00" departDelay="3.00" arrival="234.00" arrivalLane="53o_0" arrivalPos="10.00" arrivalSpeed="10.95" duration="125.00" routeLength="1009.73" waitingTime="15.00" waitingCount="2" stopTime="0.00" timeLoss="47.72" rerouteNo="0" devices="tripinfo_v_34" vType="type" speedFactor="0.99" vaporized=""/>
    <tripinfo id="v_22" depart="74.00" departLane="54i_0" departPos="5.10" departSpeed="0.00" departDelay="0.00" arrival="235.00" arrivalLane="51o_0" arrivalPos="10.00" arrivalSpeed="10.64" duration="161.00" routeLength="1009.73" waitingTime="46.00" waitingCount="4" stopTime="0.00" timeLoss="82.56" rerouteNo="0" devices="tripinfo_v_22" vType="type" speedFactor="0.97" vaporized=""/>
    <tripinfo id="v_38" depart="116.00" departLane="51i_0" departPos="5.10" departSpeed="0.00" departDelay="0.00" arrival="519.00" arrivalLane="52o_0" arrivalPos="10.00" arrivalSpeed="12.14" duration="403.00" routeLength="1000.70" waitingTime="309.00" waitingCount="2" stopTime="0.00" timeLoss="331.96" rerouteNo="0" devices="tripinfo_v_38" vType="type" speedFactor="1.10" vaporized=""/>
    <tripinfo id="v_27" depart="89.00" departLane="53i_0" departPos="5.10" departSpeed="0.00" departDelay="4.00" arrival="526.00" arrivalLane="51o_0" arrivalPos="10.00" arrivalSpeed="10.37" duration="437.00" routeLength="1000.70" waitingTime="326.00" waitingCount="3" stopTime="0.00" timeLoss="359.02" rerouteNo="0" devices="tripinfo_v_27" vType="type" speedFactor="0.95" vaporized=""/>
    <tripinfo id="v_42" depart="133.00" departLane="52i_0" departPos="5.10" departSpeed="0.00" departDelay="0.00" arrival="527.00" arrivalLane="54o_0" arrivalPos="10.00" arrivalSpeed="12.07" duration="394.00" routeLength="1000.70" waitingTime="301.00" waitingCount="1" stopTime="0.00" timeLoss="322.87" rerouteNo="0" devices="tripinfo_v_42" vType="type" speedFactor="1.09" vaporized=""/>
    <tripinfo id="v_23" depart="79.00" departLane="54i_0" departPos="5.10" departSpeed="0.00" departDelay="3.00" arrival="538.00" arrivalLane="53o_0" arrivalPos="10.00" arrivalSpeed="9.67" duration="459.00" routeLength="1000.70" waitingTime="341.00" waitingCount="5" stopTime="0.00" timeLoss="378.17" rerouteNo="0" devices="tripinfo_v_23" vType="type" speedFactor="0.89" vaporized=""/>
</tripinfos>
