<?xml version="1.0" encoding="UTF-8"?>

<!-- generated on 2022-08-17 16:45:45 by Eclipse SUMO sumo Version 1.13.0
<configuration xmlns:xsi="http://www.w3.org/2001/XMLSchema-instance" xsi:noNamespaceSchemaLocation="http://sumo.dlr.de/xsd/sumoConfiguration.xsd">

    <input>
        <net-file value="data/cross.net.xml"/>
        <route-files value="data/cross.rou.xml"/>
        <additional-files value="data/cross.det.xml"/>
    </input>

    <output>
        <tripinfo-output value="tripinfo.xml"/>
    </output>

    <time>
        <begin value="0"/>
    </time>

    <report>
        <verbose value="true"/>
        <no-step-log value="true"/>
    </report>

    <traci_server>
        <remote-port value="56236"/>
    </traci_server>

</configuration>
-->

<tripinfos xmlns:xsi="http://www.w3.org/2001/XMLSchema-instance" xsi:noNamespaceSchemaLocation="http://sumo.dlr.de/xsd/tripinfo_file.xsd">
    <tripinfo id="v_0" depart="0.00" departLane="52i_0" departPos="5.10" departSpeed="0.00" departDelay="0.00" arrival="101.00" arrivalLane="53o_0" arrivalPos="10.00" arrivalSpeed="11.59" duration="101.00" routeLength="1009.73" waitingTime="1.00" waitingCount="1" stopTime="0.00" timeLoss="26.35" rerouteNo="0" devices="tripinfo_v_0" vType="type" speedFactor="1.06" vaporized=""/>
    <tripinfo id="v_2" depart="2.00" departLane="53i_0" departPos="5.10" departSpeed="0.00" departDelay="0.00" arrival="105.00" arrivalLane="51o_0" arrivalPos="10.00" arrivalSpeed="10.96" duration="103.00" routeLength="1015.10" waitingTime="2.00" waitingCount="1" stopTime="0.00" timeLoss="27.08" rerouteNo="0" devices="tripinfo_v_2" vType="type" speedFactor="1.01" vaporized=""/>
    <tripinfo id="v_1" depart="2.00" departLane="51i_0" departPos="5.10" departSpeed="0.00" departDelay="0.00" arrival="108.00" arrivalLane="53o_0" arrivalPos="10.00" arrivalSpeed="10.30" duration="106.00" routeLength="1015.10" waitingTime="2.00" waitingCount="1" stopTime="0.00" timeLoss="26.61" rerouteNo="0" devices="tripinfo_v_1" vType="type" speedFactor="0.94" vaporized=""/>
    <tripinfo id="v_4" depart="9.00" departLane="52i_0" departPos="5.10" departSpeed="0.00" departDelay="0.00" arrival="114.00" arrivalLane="53o_0" arrivalPos="10.00" arrivalSpeed="11.06" duration="105.00" routeLength="1009.73" waitingTime="3.00" waitingCount="1" stopTime="0.00" timeLoss="29.75" rerouteNo="0" devices="tripinfo_v_4" vType="type" speedFactor="1.03" vaporized=""/>
    <tripinfo id="v_3" depart="7.00" departLane="51i_0" departPos="5.10" departSpeed="0.00" departDelay="3.00" arrival="117.00" arrivalLane="53o_0" arrivalPos="10.00" arrivalSpeed="11.79" duration="110.00" routeLength="1015.10" waitingTime="5.00" waitingCount="1" stopTime="0.00" timeLoss="36.69" rerouteNo="0" devices="tripinfo_v_3" vType="type" speedFactor="1.08" vaporized=""/>
    <tripinfo id="v_5" depart="15.00" departLane="53i_0" departPos="5.10" departSpeed="0.00" departDelay="0.00" arrival="128.00" arrivalLane="51o_0" arrivalPos="10.00" arrivalSpeed="8.90" duration="113.00" routeLength="1015.10" waitingTime="3.00" waitingCount="1" stopTime="0.00" timeLoss="26.24" rerouteNo="0" devices="tripinfo_v_5" vType="type" speedFactor="0.83" vaporized=""/>
    <tripinfo id="v_6" depart="20.00" departLane="54i_0" departPos="5.10" departSpeed="0.00" departDelay="0.00" arrival="131.00" arrivalLane="51o_0" arrivalPos="10.00" arrivalSpeed="11.62" duration="111.00" routeLength="1009.73" waitingTime="10.00" waitingCount="1" stopTime="0.00" timeLoss="35.81" rerouteNo="0" devices="tripinfo_v_6" vType="type" speedFactor="1.05" vaporized=""/>
    <tripinfo id="v_7" depart="23.00" departLane="52i_0" departPos="5.10" departSpeed="0.00" departDelay="0.00" arrival="132.00" arrivalLane="54o_0" arrivalPos="10.00" arrivalSpeed="9.83" duration="109.00" routeLength="1015.10" waitingTime="1.00" waitingCount="1" stopTime="0.00" timeLoss="26.32" rerouteNo="0" devices="tripinfo_v_7" vType="type" speedFactor="0.89" vaporized=""/>
    <tripinfo id="v_8" depart="29.00" departLane="51i_0" departPos="5.10" departSpeed="0.00" departDelay="0.00" arrival="139.00" arrivalLane="53o_0" arrivalPos="10.00" arrivalSpeed="10.06" duration="110.00" routeLength="1015.10" waitingTime="5.00" waitingCount="1" stopTime="0.00" timeLoss="30.28" rerouteNo="0" devices="tripinfo_v_8" vType="type" speedFactor="0.94" vaporized=""/>
    <tripinfo id="v_9" depart="29.00" departLane="52i_0" departPos="5.10" departSpeed="0.00" departDelay="0.00" arrival="150.00" arrivalLane="54o_0" arrivalPos="10.00" arrivalSpeed="9.50" duration="121.00" routeLength="1015.10" waitingTime="10.00" waitingCount="2" stopTime="0.00" timeLoss="37.04" rerouteNo="0" devices="tripinfo_v_9" vType="type" speedFactor="0.86" vaporized=""/>
    <tripinfo id="v_10" depart="64.00" departLane="54i_0" departPos="5.10" departSpeed="0.00" departDelay="0.00" arrival="156.00" arrivalLane="52o_0" arrivalPos="10.00" arrivalSpeed="12.08" duration="92.00" routeLength="1015.10" waitingTime="0.00" waitingCount="0" stopTime="0.00" timeLoss="19.30" rerouteNo="0" devices="tripinfo_v_10" vType="type" speedFactor="1.09" vaporized=""/>
    <tripinfo id="v_11" depart="69.00" departLane="54i_0" departPos="5.10" departSpeed="0.00" departDelay="0.00" arrival="162.00" arrivalLane="52o_0" arrivalPos="10.00" arrivalSpeed="11.09" duration="93.00" routeLength="1015.10" waitingTime="0.00" waitingCount="0" stopTime="0.00" timeLoss="17.98" rerouteNo="0" devices="tripinfo_v_11" vType="type" speedFactor="1.03" vaporized=""/>
    <tripinfo id="v_13" depart="77.00" departLane="54i_0" departPos="5.10" departSpeed="0.00" departDelay="0.00" arrival="165.00" arrivalLane="52o_0" arrivalPos="10.00" arrivalSpeed="12.14" duration="88.00" routeLength="1015.10" waitingTime="0.00" waitingCount="0" stopTime="0.00" timeLoss="16.46" rerouteNo="0" devices="tripinfo_v_13" vType="type" speedFactor="1.12" vaporized=""/>
    <tripinfo id="v_12" depart="71.00" departLane="52i_0" departPos="5.10" departSpeed="0.00" departDelay="0.00" arrival="168.00" arrivalLane="51o_0" arrivalPos="10.00" arrivalSpeed="11.57" duration="97.00" routeLength="1014.90" waitingTime="0.00" waitingCount="0" stopTime="0.00" timeLoss="21.67" rerouteNo="0" devices="tripinfo_v_12" vType="type" speedFactor="1.05" vaporized=""/>
    <tripinfo id="v_14" depart="82.00" departLane="51i_0" departPos="5.10" departSpeed="0.00" departDelay="0.00" arrival="178.00" arrivalLane="53o_0" arrivalPos="10.00" arrivalSpeed="10.88" duration="96.00" routeLength="1015.10" waitingTime="0.00" waitingCount="0" stopTime="0.00" timeLoss="19.08" rerouteNo="0" devices="tripinfo_v_14" vType="type" speedFactor="0.99" vaporized=""/>
    <tripinfo id="v_15" depart="88.00" departLane="52i_0" departPos="5.10" departSpeed="0.00" departDelay="0.00" arrival="194.00" arrivalLane="54o_0" arrivalPos="10.00" arrivalSpeed="10.11" duration="106.00" routeLength="1015.10" waitingTime="2.00" waitingCount="1" stopTime="0.00" timeLoss="25.59" rerouteNo="0" devices="tripinfo_v_15" vType="type" speedFactor="0.93" vaporized=""/>
    <tripinfo id="v_16" depart="94.00" departLane="53i_0" departPos="5.10" departSpeed="0.00" departDelay="0.00" arrival="209.00" arrivalLane="51o_0" arrivalPos="10.00" arrivalSpeed="9.66" duration="115.00" routeLength="1015.10" waitingTime="8.00" waitingCount="2" stopTime="0.00" timeLoss="32.43" rerouteNo="0" devices="tripinfo_v_16" vType="type" speedFactor="0.88" vaporized=""/>
    <tripinfo id="v_18" depart="102.00" departLane="52i_0" departPos="5.10" departSpeed="0.00" departDelay="0.00" arrival="210.00" arrivalLane="54o_0" arrivalPos="10.00" arrivalSpeed="10.27" duration="108.00" routeLength="1015.10" waitingTime="3.00" waitingCount="1" stopTime="0.00" timeLoss="28.40" rerouteNo="0" devices="tripinfo_v_18" vType="type" speedFactor="0.94" vaporized=""/>
    <tripinfo id="v_21" depart="120.00" departLane="51i_0" departPos="5.10" departSpeed="0.00" departDelay="0.00" arrival="213.00" arrivalLane="53o_0" arrivalPos="10.00" arrivalSpeed="11.18" duration="93.00" routeLength="1015.10" waitingTime="0.00" waitingCount="0" stopTime="0.00" timeLoss="17.02" rerouteNo="0" devices="tripinfo_v_21" vType="type" speedFactor="1.01" vaporized=""/>
    <tripinfo id="v_17" depart="101.00" departLane="53i_0" departPos="5.10" departSpeed="0.00" departDelay="2.00" arrival="217.00" arrivalLane="51o_0" arrivalPos="10.00" arrivalSpeed="10.40" duration="116.00" routeLength="1015.10" waitingTime="2.00" waitingCount="2" stopTime="0.00" timeLoss="36.46" rerouteNo="0" devices="tripinfo_v_17" vType="type" speedFactor="0.94" vaporized=""/>
    <tripinfo id="v_19" depart="117.00" departLane="53i_0" departPos="5.10" departSpeed="0.00" departDelay="2.00" arrival="219.00" arrivalLane="51o_0" arrivalPos="10.00" arrivalSpeed="10.98" duration="102.00" routeLength="1015.10" waitingTime="0.00" waitingCount="0" stopTime="0.00" timeLoss="31.52" rerouteNo="0" devices="tripinfo_v_19" vType="type" speedFactor="1.16" vaporized=""/>
    <tripinfo id="v_20" depart="118.00" departLane="52i_0" departPos="5.10" departSpeed="0.00" departDelay="0.00" arrival="221.00" arrivalLane="54o_0" arrivalPos="10.00" arrivalSpeed="11.25" duration="103.00" routeLength="1015.10" waitingTime="3.00" waitingCount="1" stopTime="0.00" timeLoss="27.28" rerouteNo="0" devices="tripinfo_v_20" vType="type" speedFactor="1.02" vaporized=""/>
    <tripinfo id="v_23" depart="123.00" departLane="54i_0" departPos="5.10" departSpeed="0.00" departDelay="0.00" arrival="234.00" arrivalLane="52o_0" arrivalPos="10.00" arrivalSpeed="9.72" duration="111.00" routeLength="1015.10" waitingTime="5.00" waitingCount="1" stopTime="0.00" timeLoss="28.56" rerouteNo="0" devices="tripinfo_v_23" vType="type" speedFactor="0.89" vaporized=""/>
    <tripinfo id="v_22" depart="123.00" departLane="53i_0" departPos="5.10" departSpeed="0.00" departDelay="3.00" arrival="235.00" arrivalLane="51o_0" arrivalPos="10.00" arrivalSpeed="10.64" duration="112.00" routeLength="1015.10" waitingTime="7.00" waitingCount="1" stopTime="0.00" timeLoss="34.06" rerouteNo="0" devices="tripinfo_v_22" vType="type" speedFactor="0.97" vaporized=""/>
    <tripinfo id="v_26" depart="140.00" departLane="54i_0" departPos="5.10" departSpeed="0.00" departDelay="0.00" arrival="239.00" arrivalLane="53o_0" arrivalPos="10.00" arrivalSpeed="9.85" duration="99.00" routeLength="1014.90" waitingTime="0.00" waitingCount="0" stopTime="0.00" timeLoss="17.47" rerouteNo="0" devices="tripinfo_v_26" vType="type" speedFactor="0.92" vaporized=""/>
    <tripinfo id="v_28" depart="152.00" departLane="52i_0" departPos="5.10" departSpeed="0.00" departDelay="0.00" arrival="243.00" arrivalLane="54o_0" arrivalPos="10.00" arrivalSpeed="12.39" duration="91.00" routeLength="1015.10" waitingTime="0.00" waitingCount="0" stopTime="0.00" timeLoss="19.28" rerouteNo="0" devices="tripinfo_v_28" vType="type" speedFactor="1.13" vaporized=""/>
    <tripinfo id="v_24" depart="126.00" departLane="51i_0" departPos="5.10" departSpeed="0.00" departDelay="0.00" arrival="244.00" arrivalLane="52o_0" arrivalPos="10.00" arrivalSpeed="8.98" duration="118.00" routeLength="1009.73" waitingTime="6.00" waitingCount="2" stopTime="0.00" timeLoss="30.25" rerouteNo="0" devices="tripinfo_v_24" vType="type" speedFactor="0.83" vaporized=""/>
    <tripinfo id="v_27" depart="145.00" departLane="54i_0" departPos="5.10" departSpeed="0.00" departDelay="3.00" arrival="257.00" arrivalLane="53o_0" arrivalPos="10.00" arrivalSpeed="10.43" duration="112.00" routeLength="1014.90" waitingTime="4.00" waitingCount="1" stopTime="0.00" timeLoss="32.53" rerouteNo="0" devices="tripinfo_v_27" vType="type" speedFactor="0.95" vaporized=""/>
    <tripinfo id="v_25" depart="129.00" departLane="53i_0" departPos="5.10" departSpeed="0.00" departDelay="0.00" arrival="265.00" arrivalLane="51o_0" arrivalPos="10.00" arrivalSpeed="9.52" duration="136.00" routeLength="1015.10" waitingTime="22.00" waitingCount="3" stopTime="0.00" timeLoss="52.42" rerouteNo="0" devices="tripinfo_v_25" vType="type" speedFactor="0.87" vaporized=""/>
    <tripinfo id="v_30" depart="171.00" departLane="53i_0" departPos="5.10" departSpeed="0.00" departDelay="0.00" arrival="268.00" arrivalLane="51o_0" arrivalPos="10.00" arrivalSpeed="12.76" duration="97.00" routeLength="1015.10" waitingTime="1.00" waitingCount="1" stopTime="0.00" timeLoss="27.71" rerouteNo="0" devices="tripinfo_v_30" vType="type" speedFactor="1.18" vaporized=""/>
    <tripinfo id="v_29" depart="163.00" departLane="54i_0" departPos="5.10" departSpeed="0.00" departDelay="0.00" arrival="270.00" arrivalLane="52o_0" arrivalPos="10.00" arrivalSpeed="10.17" duration="107.00" routeLength="1015.10" waitingTime="0.00" waitingCount="0" stopTime="0.00" timeLoss="26.66" rerouteNo="0" devices="tripinfo_v_29" vType="type" speedFactor="0.93" vaporized=""/>
    <tripinfo id="v_31" depart="174.00" departLane="52i_0" departPos="5.10" departSpeed="0.00" departDelay="0.00" arrival="276.00" arrivalLane="54o_0" arrivalPos="10.00" arrivalSpeed="12.75" duration="102.00" routeLength="1015.10" waitingTime="5.00" waitingCount="2" stopTime="0.00" timeLoss="31.70" rerouteNo="0" devices="tripinfo_v_31" vType="type" speedFactor="1.15" vaporized=""/>
    <tripinfo id="v_32" depart="196.00" departLane="52i_0" departPos="5.10" departSpeed="0.00" departDelay="0.00" arrival="293.00" arrivalLane="54o_0" arrivalPos="10.00" arrivalSpeed="11.09" duration="97.00" routeLength="1015.10" waitingTime="0.00" waitingCount="0" stopTime="0.00" timeLoss="20.23" rerouteNo="0" devices="tripinfo_v_32" vType="type" speedFactor="1.01" vaporized=""/>
    <tripinfo id="v_33" depart="201.00" departLane="52i_0" departPos="5.10" departSpeed="0.00" departDelay="3.00" arrival="301.00" arrivalLane="54o_0" arrivalPos="10.00" arrivalSpeed="12.87" duration="100.00" routeLength="1015.10" waitingTime="3.00" waitingCount="1" stopTime="0.00" timeLoss="30.52" rerouteNo="0" devices="tripinfo_v_33" vType="type" speedFactor="1.17" vaporized=""/>
    <tripinfo id="v_36" depart="211.00" departLane="53i_0" departPos="5.10" departSpeed="0.00" departDelay="0.00" arrival="315.00" arrivalLane="52o_0" arrivalPos="10.00" arrivalSpeed="10.53" duration="104.00" routeLength="1014.90" waitingTime="0.00" waitingCount="0" stopTime="0.00" timeLoss="25.12" rerouteNo="0" devices="tripinfo_v_36" vType="type" speedFactor="0.97" vaporized=""/>
    <tripinfo id="v_37" depart="217.00" departLane="54i_0" departPos="5.10" departSpeed="0.00" departDelay="0.00" arrival="317.00" arrivalLane="52o_0" arrivalPos="10.00" arrivalSpeed="11.87" duration="100.00" routeLength="1015.10" waitingTime="0.00" waitingCount="0" stopTime="0.00" timeLoss="30.12" rerouteNo="0" devices="tripinfo_v_37" vType="type" speedFactor="1.18" vaporized=""/>
    <tripinfo id="v_34" depart="206.00" departLane="52i_0" departPos="5.10" departSpeed="0.00" departDelay="2.00" arrival="327.00" arrivalLane="51o_0" arrivalPos="10.00" arrivalSpeed="10.82" duration="121.00" routeLength="1014.90" waitingTime="12.00" waitingCount="3" stopTime="0.00" timeLoss="43.45" rerouteNo="0" devices="tripinfo_v_34" vType="type" speedFactor="0.99" vaporized=""/>
    <tripinfo id="v_35" depart="211.00" departLane="52i_0" departPos="5.10" departSpeed="0.00" departDelay="4.00" arrival="328.00" arrivalLane="54o_0" arrivalPos="10.00" arrivalSpeed="11.28" duration="117.00" routeLength="1015.10" waitingTime="10.00" waitingCount="3" stopTime="0.00" timeLoss="41.73" rerouteNo="0" devices="tripinfo_v_35" vType="type" speedFactor="1.02" vaporized=""/>
    <tripinfo id="v_40" depart="238.00" departLane="54i_0" departPos="5.10" departSpeed="0.00" departDelay="0.00" arrival="340.00" arrivalLane="52o_0" arrivalPos="10.00" arrivalSpeed="11.08" duration="102.00" routeLength="1015.10" waitingTime="0.00" waitingCount="0" stopTime="0.00" timeLoss="26.32" rerouteNo="0" devices="tripinfo_v_40" vType="type" speedFactor="1.03" vaporized=""/>
    <tripinfo id="v_39" depart="231.00" departLane="54i_0" departPos="5.10" departSpeed="0.00" departDelay="0.00" arrival="341.00" arrivalLane="53o_0" arrivalPos="10.00" arrivalSpeed="9.90" duration="110.00" routeLength="1014.90" waitingTime="2.00" waitingCount="1" stopTime="0.00" timeLoss="27.20" rerouteNo="0" devices="tripinfo_v_39" vType="type" speedFactor="0.90" vaporized=""/>
    <tripinfo id="v_38" depart="229.00" departLane="53i_0" departPos="5.10" departSpeed="0.00" departDelay="0.00" arrival="343.00" arrivalLane="51o_0" arrivalPos="10.00" arrivalSpeed="12.05" duration="114.00" routeLength="1015.10" waitingTime="14.00" waitingCount="2" stopTime="0.00" timeLoss="41.76" rerouteNo="0" devices="tripinfo_v_38" vType="type" speedFactor="1.10" vaporized=""/>
    <tripinfo id="v_43" depart="247.00" departLane="53i_0" departPos="5.10" departSpeed="0.00" departDelay="0.00" arrival="347.00" arrivalLane="51o_0" arrivalPos="10.00" arrivalSpeed="11.28" duration="100.00" routeLength="1015.10" waitingTime="0.00" waitingCount="0" stopTime="0.00" timeLoss="25.03" rerouteNo="0" devices="tripinfo_v_43" vType="type" speedFactor="1.04" vaporized=""/>
    <tripinfo id="v_41" depart="243.00" departLane="51i_0" departPos="5.10" departSpeed="0.00" departDelay="0.00" arrival="352.00" arrivalLane="53o_0" arrivalPos="10.00" arrivalSpeed="10.51" duration="109.00" routeLength="1015.10" waitingTime="4.00" waitingCount="1" stopTime="0.00" timeLoss="30.82" rerouteNo="0" devices="tripinfo_v_41" vType="type" speedFactor="0.96" vaporized=""/>
    <tripinfo id="v_44" depart="251.00" departLane="52i_0" departPos="5.10" departSpeed="0.00" departDelay="0.00" arrival="356.00" arrivalLane="54o_0" arrivalPos="10.00" arrivalSpeed="11.47" duration="105.00" routeLength="1015.10" waitingTime="3.00" waitingCount="1" stopTime="0.00" timeLoss="30.34" rerouteNo="0" devices="tripinfo_v_44" vType="type" speedFactor="1.04" vaporized=""/>
    <tripinfo id="v_42" depart="248.00" departLane="51i_0" departPos="5.10" departSpeed="0.00" departDelay="2.00" arrival="362.00" arrivalLane="54o_0" arrivalPos="10.00" arrivalSpeed="12.02" duration="114.00" routeLength="1014.90" waitingTime="10.00" waitingCount="2" stopTime="0.00" timeLoss="40.94" rerouteNo="0" devices="tripinfo_v_42" vType="type" speedFactor="1.09" vaporized=""/>
    <tripinfo id="v_45" depart="270.00" departLane="51i_0" departPos="5.10" departSpeed="0.00" departDelay="0.00" arrival="364.00" arrivalLane="54o_0" arrivalPos="10.00" arrivalSpeed="11.96" duration="94.00" routeLength="1014.90" waitingTime="0.00" waitingCount="0" stopTime="0.00" timeLoss="20.45" rerouteNo="0" devices="tripinfo_v_45" vType="type" speedFactor="1.09" vaporized=""/>
    <tripinfo id="v_46" depart="271.00" departLane="54i_0" departPos="5.10" departSpeed="0.00" departDelay="0.00" arrival="375.00" arrivalLane="53o_0" arrivalPos="10.00" arrivalSpeed="10.87" duration="104.00" routeLength="1014.90" waitingTime="3.00" waitingCount="1" stopTime="0.00" timeLoss="26.46" rerouteNo="0" devices="tripinfo_v_46" vType="type" speedFactor="1.00" vaporized=""/>
    <tripinfo id="v_51" depart="284.00" departLane="52i_0" departPos="5.10" departSpeed="0.00" departDelay="1.00" arrival="391.00" arrivalLane="51o_0" arrivalPos="10.00" arrivalSpeed="12.90" duration="107.00" routeLength="1014.90" waitingTime="6.00" waitingCount="2" stopTime="0.00" timeLoss="36.41" rerouteNo="0" devices="tripinfo_v_51" vType="type" speedFactor="1.17" vaporized=""/>
    <tripinfo id="v_48" depart="279.00" departLane="52i_0" departPos="5.10" departSpeed="0.00" departDelay="0.00" arrival="392.00" arrivalLane="54o_0" arrivalPos="10.00" arrivalSpeed="9.63" duration="113.00" routeLength="1015.10" waitingTime="6.00" waitingCount="1" stopTime="0.00" timeLoss="30.33" rerouteNo="0" devices="tripinfo_v_48" vType="type" speedFactor="0.88" vaporized=""/>
    <tripinfo id="v_49" depart="279.00" departLane="54i_0" departPos="5.10" departSpeed="0.00" departDelay="0.00" arrival="394.00" arrivalLane="52o_0" arrivalPos="10.00" arrivalSpeed="9.34" duration="115.00" routeLength="1015.10" waitingTime="6.00" waitingCount="1" stopTime="0.00" timeLoss="29.83" rerouteNo="0" devices="tripinfo_v_49" vType="type" speedFactor="0.85" vaporized=""/>
    <tripinfo id="v_47" depart="275.00" departLane="51i_0" departPos="5.10" departSpeed="0.00" departDelay="2.00" arrival="397.00" arrivalLane="53o_0" arrivalPos="10.00" arrivalSpeed="9.74" duration="122.00" routeLength="1015.10" waitingTime="11.00" waitingCount="2" stopTime="0.00" timeLoss="40.05" rerouteNo="0" devices="tripinfo_v_47" vType="type" speedFactor="0.90" vaporized=""/>
    <tripinfo id="v_53" depart="317.00" departLane="52i_0" departPos="5.10" departSpeed="0.00" departDelay="0.00" arrival="405.00" arrivalLane="54o_0" arrivalPos="10.00" arrivalSpeed="11.91" duration="88.00" routeLength="1015.10" waitingTime="0.00" waitingCount="0" stopTime="0.00" timeLoss="15.80" rerouteNo="0" devices="tripinfo_v_53" vType="type" speedFactor="1.10" vaporized=""/>
    <tripinfo id="v_50" depart="281.00" departLane="51i_0" departPos="5.10" departSpeed="0.00" departDelay="0.00" arrival="407.00" arrivalLane="53o_0" arrivalPos="10.00" arrivalSpeed="9.30" duration="126.00" routeLength="1015.10" waitingTime="7.00" waitingCount="3" stopTime="0.00" timeLoss="41.58" rerouteNo="0" devices="tripinfo_v_50" vType="type" speedFactor="0.85" vaporized=""/>
    <tripinfo id="v_52" depart="289.00" departLane="52i_0" departPos="5.10" departSpeed="0.00" departDelay="4.00" arrival="409.00" arrivalLane="53o_0" arrivalPos="10.00" arrivalSpeed="10.57" duration="120.00" routeLength="1009.73" waitingTime="5.00" waitingCount="2" stopTime="0.00" timeLoss="43.83" rerouteNo="0" devices="tripinfo_v_52" vType="type" speedFactor="1.02" vaporized=""/>
    <tripinfo id="v_54" depart="329.00" departLane="54i_0" departPos="5.10" departSpeed="0.00" departDelay="0.00" arrival="424.00" arrivalLane="51o_0" arrivalPos="10.00" arrivalSpeed="10.95" duration="95.00" routeLength="1009.73" waitingTime="0.00" waitingCount="0" stopTime="0.00" timeLoss="17.89" rerouteNo="0" devices="tripinfo_v_54" vType="type" speedFactor="1.00" vaporized=""/>
    <tripinfo id="v_55" depart="331.00" departLane="51i_0" departPos="5.10" departSpeed="0.00" departDelay="0.00" arrival="432.00" arrivalLane="54o_0" arrivalPos="10.00" arrivalSpeed="10.73" duration="101.00" routeLength="1014.90" waitingTime="0.00" waitingCount="0" stopTime="0.00" timeLoss="23.86" rerouteNo="0" devices="tripinfo_v_55" vType="type" speedFactor="1.00" vaporized=""/>
    <tripinfo id="v_57" depart="336.00" departLane="51i_0" departPos="5.10" departSpeed="0.00" departDelay="0.00" arrival="436.00" arrivalLane="53o_0" arrivalPos="10.00" arrivalSpeed="12.59" duration="100.00" routeLength="1015.10" waitingTime="1.00" waitingCount="1" stopTime="0.00" timeLoss="29.39" rerouteNo="0" devices="tripinfo_v_57" vType="type" speedFactor="1.14" vaporized=""/>
    <tripinfo id="v_56" depart="334.00" departLane="54i_0" departPos="5.10" departSpeed="0.00" departDelay="1.00" arrival="441.00" arrivalLane="51o_0" arrivalPos="10.00" arrivalSpeed="9.89" duration="107.00" routeLength="1009.73" waitingTime="1.00" waitingCount="1" stopTime="0.00" timeLoss="24.70" rerouteNo="0" devices="tripinfo_v_56" vType="type" speedFactor="0.90" vaporized=""/>
    <tripinfo id="v_58" depart="337.00" departLane="53i_0" departPos="5.10" departSpeed="0.00" departDelay="0.00" arrival="443.00" arrivalLane="51o_0" arrivalPos="10.00" arrivalSpeed="11.04" duration="106.00" routeLength="1015.10" waitingTime="1.00" waitingCount="1" stopTime="0.00" timeLoss="30.01" rerouteNo="0" devices="tripinfo_v_58" vType="type" speedFactor="1.02" vaporized=""/>
    <tripinfo id="v_60" depart="344.00" departLane="52i_0" departPos="5.10" departSpeed="0.00" departDelay="0.00" arrival="447.00" arrivalLane="54o_0" arrivalPos="10.00" arrivalSpeed="11.88" duration="103.00" routeLength="1015.10" waitingTime="4.00" waitingCount="1" stopTime="0.00" timeLoss="29.59" rerouteNo="0" devices="tripinfo_v_60" vType="type" speedFactor="1.08" vaporized=""/>
    <tripinfo id="v_59" depart="342.00" departLane="53i_0" departPos="5.10" departSpeed="0.00" departDelay="0.00" arrival="454.00" arrivalLane="52o_0" arrivalPos="10.00" arrivalSpeed="10.46" duration="112.00" routeLength="1014.90" waitingTime="6.00" waitingCount="1" stopTime="0.00" timeLoss="33.57" rerouteNo="0" devices="tripinfo_v_59" vType="type" speedFactor="0.97" vaporized=""/>
    <tripinfo id="v_61" depart="349.00" departLane="52i_0" departPos="5.10" departSpeed="0.00" departDelay="2.00" arrival="455.00" arrivalLane="53o_0" arrivalPos="10.00" arrivalSpeed="12.17" duration="106.00" routeLength="1009.73" waitingTime="4.00" waitingCount="1" stopTime="0.00" timeLoss="34.10" rerouteNo="0" devices="tripinfo_v_61" vType="type" speedFactor="1.12" vaporized=""/>
    <tripinfo id="v_62" depart="347.00" departLane="53i_0" departPos="5.10" departSpeed="0.00" departDelay="0.00" arrival="476.00" arrivalLane="54o_0" arrivalPos="10.00" arrivalSpeed="10.90" duration="129.00" routeLength="1009.73" waitingTime="20.00" waitingCount="3" stopTime="0.00" timeLoss="52.52" rerouteNo="0" devices="tripinfo_v_62" vType="type" speedFactor="1.02" vaporized=""/>
    <tripinfo id="v_65" depart="372.00" departLane="54i_0" departPos="5.10" departSpeed="0.00" departDelay="0.00" arrival="478.00" arrivalLane="52o_0" arrivalPos="10.00" arrivalSpeed="9.77" duration="106.00" routeLength="1015.10" waitingTime="0.00" waitingCount="0" stopTime="0.00" timeLoss="23.66" rerouteNo="0" devices="tripinfo_v_65" vType="type" speedFactor="0.88" vaporized=""/>
    <tripinfo id="v_63" depart="356.00" departLane="53i_0" departPos="5.10" departSpeed="0.00" departDelay="0.00" arrival="482.00" arrivalLane="54o_0" arrivalPos="10.00" arrivalSpeed="10.60" duration="126.00" routeLength="1009.73" waitingTime="13.00" waitingCount="2" stopTime="0.00" timeLoss="48.85" rerouteNo="0" devices="tripinfo_v_63" vType="type" speedFactor="0.99" vaporized=""/>
    <tripinfo id="v_64" depart="360.00" departLane="52i_0" departPos="5.10" departSpeed="0.00" departDelay="0.00" arrival="484.00" arrivalLane="51o_0" arrivalPos="10.00" arrivalSpeed="10.17" duration="124.00" routeLength="1014.90" waitingTime="13.00" waitingCount="2" stopTime="0.00" timeLoss="43.56" rerouteNo="0" devices="tripinfo_v_64" vType="type" speedFactor="0.94" vaporized=""/>
    <tripinfo id="v_66" depart="385.00" departLane="53i_0" departPos="5.10" departSpeed="0.00" departDelay="0.00" arrival="500.00" arrivalLane="51o_0" arrivalPos="10.00" arrivalSpeed="10.01" duration="115.00" routeLength="1015.10" waitingTime="7.00" waitingCount="1" stopTime="0.00" timeLoss="34.06" rerouteNo="0" devices="tripinfo_v_66" vType="type" speedFactor="0.91" vaporized=""/>
    <tripinfo id="v_68" depart="406.00" departLane="54i_0" departPos="5.10" departSpeed="0.00" departDelay="0.00" arrival="506.00" arrivalLane="51o_0" arrivalPos="10.00" arrivalSpeed="11.35" duration="100.00" routeLength="1009.73" waitingTime="1.00" waitingCount="1" stopTime="0.00" timeLoss="24.57" rerouteNo="0" devices="tripinfo_v_68" vType="type" speedFactor="1.04" vaporized=""/>
    <tripinfo id="v_69" depart="413.00" departLane="51i_0" departPos="5.10" departSpeed="0.00" departDelay="0.00" arrival="516.00" arrivalLane="53o_0" arrivalPos="10.00" arrivalSpeed="11.19" duration="103.00" routeLength="1015.10" waitingTime="2.00" waitingCount="1" stopTime="0.00" timeLoss="27.57" rerouteNo="0" devices="tripinfo_v_69" vType="type" speedFactor="1.02" vaporized=""/>
    <tripinfo id="v_67" depart="397.00" departLane="53i_0" departPos="5.10" departSpeed="0.00" departDelay="0.00" arrival="521.00" arrivalLane="54o_0" arrivalPos="10.00" arrivalSpeed="9.93" duration="124.00" routeLength="1009.73" waitingTime="12.00" waitingCount="2" stopTime="0.00" timeLoss="42.75" rerouteNo="0" devices="tripinfo_v_67" vType="type" speedFactor="0.91" vaporized=""/>
    <tripinfo id="v_71" depart="416.00" departLane="54i_0" departPos="5.10" departSpeed="0.00" departDelay="0.00" arrival="522.00" arrivalLane="52o_0" arrivalPos="10.00" arrivalSpeed="10.65" duration="106.00" routeLength="1015.10" waitingTime="0.00" waitingCount="0" stopTime="0.00" timeLoss="27.99" rerouteNo="0" devices="tripinfo_v_71" vType="type" speedFactor="0.97" vaporized=""/>
    <tripinfo id="v_70" depart="416.00" departLane="52i_0" departPos="5.10" departSpeed="0.00" departDelay="0.00" arrival="523.00" arrivalLane="54o_0" arrivalPos="10.00" arrivalSpeed="10.99" duration="107.00" routeLength="1015.10" waitingTime="3.00" waitingCount="1" stopTime="0.00" timeLoss="31.39" rerouteNo="0" devices="tripinfo_v_70" vType="type" speedFactor="1.02" vaporized=""/>
    <tripinfo id="v_74" depart="450.00" departLane="51i_0" departPos="5.10" departSpeed="0.00" departDelay="0.00" arrival="546.00" arrivalLane="53o_0" arrivalPos="10.00" arrivalSpeed="10.50" duration="96.00" routeLength="1015.10" waitingTime="0.00" waitingCount="0" stopTime="0.00" timeLoss="17.09" rerouteNo="0" devices="tripinfo_v_74" vType="type" speedFactor="0.96" vaporized=""/>
    <tripinfo id="v_72" depart="433.00" departLane="54i_0" departPos="5.10" departSpeed="0.00" departDelay="0.00" arrival="565.00" arrivalLane="52o_0" arrivalPos="10.00" arrivalSpeed="10.43" duration="132.00" routeLength="1015.10" waitingTime="27.00" waitingCount="2" stopTime="0.00" timeLoss="52.05" rerouteNo="0" devices="tripinfo_v_72" vType="type" speedFactor="0.94" vaporized=""/>
    <tripinfo id="v_73" depart="440.00" departLane="54i_0" departPos="5.10" departSpeed="0.00" departDelay="0.00" arrival="570.00" arrivalLane="52o_0" arrivalPos="10.00" arrivalSpeed="11.43" duration="130.00" routeLength="1015.10" waitingTime="23.00" waitingCount="3" stopTime="0.00" timeLoss="55.67" rerouteNo="0" devices="tripinfo_v_73" vType="type" speedFactor="1.06" vaporized=""/>