<?xml version="1.0" encoding="UTF-8"?>

<!-- generated on 2022-08-16 11:32:54 by Eclipse SUMO GUI Version 1.13.0
<configuration xmlns:xsi="http://www.w3.org/2001/XMLSchema-instance" xsi:noNamespaceSchemaLocation="http://sumo.dlr.de/xsd/sumoConfiguration.xsd">

    <input>
        <net-file value="data/cross.net.xml"/>
        <route-files value="data/cross.rou.xml"/>
        <additional-files value="data/cross.det.xml"/>
    </input>

    <output>
        <tripinfo-output value="tripinfo.xml"/>
    </output>

    <time>
        <begin value="0"/>
    </time>

    <report>
        <verbose value="true"/>
        <no-step-log value="true"/>
    </report>

    <traci_server>
        <remote-port value="61073"/>
    </traci_server>

</configuration>
-->

<tripinfos xmlns:xsi="http://www.w3.org/2001/XMLSchema-instance" xsi:noNamespaceSchemaLocation="http://sumo.dlr.de/xsd/tripinfo_file.xsd">
    <tripinfo id="v_0" depart="1.00" departLane="52o_0" departPos="5.10" departSpeed="0.00" departDelay="0.00" arrival="92.00" arrivalLane="51i_0" arrivalPos="10.00" arrivalSpeed="12.10" duration="91.00" routeLength="1015.10" waitingTime="0.00" waitingCount="0" stopTime="0.00" timeLoss="17.73" rerouteNo="0" devices="tripinfo_v_0" vType="type" speedFactor="1.06" vaporized=""/>
    <tripinfo id="v_2" depart="11.00" departLane="52o_0" departPos="5.10" departSpeed="0.00" departDelay="0.00" arrival="104.00" arrivalLane="54i_0" arrivalPos="10.00" arrivalSpeed="11.62" duration="93.00" routeLength="1009.73" waitingTime="0.00" waitingCount="0" stopTime="0.00" timeLoss="17.43" rerouteNo="0" devices="tripinfo_v_2" vType="type" speedFactor="1.01" vaporized=""/>
    <tripinfo id="v_4" depart="39.00" departLane="52o_0" departPos="5.10" departSpeed="0.00" departDelay="0.00" arrival="131.00" arrivalLane="54i_0" arrivalPos="10.00" arrivalSpeed="11.74" duration="92.00" routeLength="1009.73" waitingTime="0.00" waitingCount="0" stopTime="0.00" timeLoss="17.32" rerouteNo="0" devices="tripinfo_v_4" vType="type" speedFactor="1.03" vaporized=""/>
    <tripinfo id="v_3" depart="29.00" departLane="53o_0" departPos="5.10" departSpeed="0.00" departDelay="0.00" arrival="143.00" arrivalLane="54i_0" arrivalPos="10.00" arrivalSpeed="12.43" duration="114.00" routeLength="1015.10" waitingTime="14.00" waitingCount="1" stopTime="0.00" timeLoss="40.98" rerouteNo="0" devices="tripinfo_v_3" vType="type" speedFactor="1.08" vaporized=""/>
    <tripinfo id="v_7" depart="66.00" departLane="51o_0" departPos="5.10" departSpeed="0.00" departDelay="0.00" arrival="197.00" arrivalLane="53i_0" arrivalPos="10.00" arrivalSpeed="10.40" duration="131.00" routeLength="1009.73" waitingTime="25.00" waitingCount="1" stopTime="0.00" timeLoss="48.87" rerouteNo="0" devices="tripinfo_v_7" vType="type" speedFactor="0.89" vaporized=""/>
    <tripinfo id="v_5" depart="52.00" departLane="51o_0" departPos="5.10" departSpeed="0.00" departDelay="0.00" arrival="199.00" arrivalLane="52i_0" arrivalPos="10.00" arrivalSpeed="9.71" duration="147.00" routeLength="1015.10" waitingTime="36.00" waitingCount="1" stopTime="0.00" timeLoss="60.58" rerouteNo="0" devices="tripinfo_v_5" vType="type" speedFactor="0.83" vaporized=""/>
    <tripinfo id="v_6" depart="64.00" departLane="52o_0" departPos="5.10" departSpeed="0.00" departDelay="0.00" arrival="199.00" arrivalLane="53i_0" arrivalPos="10.00" arrivalSpeed="10.87" duration="135.00" routeLength="1014.90" waitingTime="27.00" waitingCount="2" stopTime="0.00" timeLoss="60.30" rerouteNo="0" devices="tripinfo_v_6" vType="type" speedFactor="1.05" vaporized=""/>
    <tripinfo id="v_9" depart="103.00" departLane="51o_0" departPos="5.10" departSpeed="0.00" departDelay="0.00" arrival="205.00" arrivalLane="54i_0" arrivalPos="10.00" arrivalSpeed="9.95" duration="102.00" routeLength="1014.90" waitingTime="0.00" waitingCount="0" stopTime="0.00" timeLoss="17.27" rerouteNo="0" devices="tripinfo_v_9" vType="type" speedFactor="0.86" vaporized=""/>
    <tripinfo id="v_10" depart="118.00" departLane="52o_0" departPos="5.10" departSpeed="0.00" departDelay="0.00" arrival="209.00" arrivalLane="53i_0" arrivalPos="10.00" arrivalSpeed="12.66" duration="91.00" routeLength="1014.90" waitingTime="0.00" waitingCount="0" stopTime="0.00" timeLoss="17.35" rerouteNo="0" devices="tripinfo_v_10" vType="type" speedFactor="1.09" vaporized=""/>
    <tripinfo id="v_11" depart="127.00" departLane="51o_0" departPos="5.10" departSpeed="0.00" departDelay="0.00" arrival="220.00" arrivalLane="54i_0" arrivalPos="10.00" arrivalSpeed="12.15" duration="93.00" routeLength="1014.90" waitingTime="0.00" waitingCount="0" stopTime="0.00" timeLoss="17.33" rerouteNo="0" devices="tripinfo_v_11" vType="type" speedFactor="1.03" vaporized=""/>
    <tripinfo id="v_12" depart="129.00" departLane="53o_0" departPos="5.10" departSpeed="0.00" departDelay="0.00" arrival="233.00" arrivalLane="51i_0" arrivalPos="10.00" arrivalSpeed="11.61" duration="104.00" routeLength="1014.90" waitingTime="3.00" waitingCount="1" stopTime="0.00" timeLoss="29.48" rerouteNo="0" devices="tripinfo_v_12" vType="type" speedFactor="1.05" vaporized=""/>
    <tripinfo id="v_17" depart="173.00" departLane="53o_0" departPos="5.10" departSpeed="0.00" departDelay="0.00" arrival="270.00" arrivalLane="52i_0" arrivalPos="10.00" arrivalSpeed="10.78" duration="97.00" routeLength="1009.73" waitingTime="0.00" waitingCount="0" stopTime="0.00" timeLoss="17.38" rerouteNo="0" devices="tripinfo_v_17" vType="type" speedFactor="0.94" vaporized=""/>
    <tripinfo id="v_13" depart="152.00" departLane="51o_0" departPos="5.10" departSpeed="0.00" departDelay="0.00" arrival="276.00" arrivalLane="52i_0" arrivalPos="10.00" arrivalSpeed="12.17" duration="124.00" routeLength="1015.10" waitingTime="25.00" waitingCount="1" stopTime="0.00" timeLoss="53.09" rerouteNo="0" devices="tripinfo_v_13" vType="type" speedFactor="1.12" vaporized=""/>
    <tripinfo id="v_15" depart="156.00" departLane="52o_0" departPos="5.10" departSpeed="0.00" departDelay="0.00" arrival="283.00" arrivalLane="54i_0" arrivalPos="10.00" arrivalSpeed="10.82" duration="127.00" routeLength="1009.73" waitingTime="21.00" waitingCount="1" stopTime="0.00" timeLoss="46.85" rerouteNo="0" devices="tripinfo_v_15" vType="type" speedFactor="0.93" vaporized=""/>
    <tripinfo id="v_16" depart="166.00" departLane="51o_0" departPos="5.10" departSpeed="0.00" departDelay="0.00" arrival="288.00" arrivalLane="52i_0" arrivalPos="10.00" arrivalSpeed="10.23" duration="122.00" routeLength="1015.10" waitingTime="14.00" waitingCount="1" stopTime="0.00" timeLoss="39.57" rerouteNo="0" devices="tripinfo_v_16" vType="type" speedFactor="0.88" vaporized=""/>
    <tripinfo id="v_19" depart="184.00" departLane="51o_0" departPos="5.10" departSpeed="0.00" departDelay="0.00" arrival="290.00" arrivalLane="52i_0" arrivalPos="10.00" arrivalSpeed="10.58" duration="106.00" routeLength="1015.10" waitingTime="0.00" waitingCount="0" stopTime="0.00" timeLoss="35.76" rerouteNo="0" devices="tripinfo_v_19" vType="type" speedFactor="1.16" vaporized=""/>
    <tripinfo id="v_22" depart="210.00" departLane="51o_0" departPos="5.10" departSpeed="0.00" departDelay="0.00" arrival="305.00" arrivalLane="53i_0" arrivalPos="10.00" arrivalSpeed="11.47" duration="95.00" routeLength="1009.73" waitingTime="0.00" waitingCount="0" stopTime="0.00" timeLoss="17.40" rerouteNo="0" devices="tripinfo_v_22" vType="type" speedFactor="0.97" vaporized=""/>
    <tripinfo id="v_20" depart="194.00" departLane="53o_0" departPos="5.10" departSpeed="0.00" departDelay="0.00" arrival="326.00" arrivalLane="52i_0" arrivalPos="10.00" arrivalSpeed="11.52" duration="132.00" routeLength="1009.73" waitingTime="31.00" waitingCount="1" stopTime="0.00" timeLoss="55.91" rerouteNo="0" devices="tripinfo_v_20" vType="type" speedFactor="1.02" vaporized=""/>
    <tripinfo id="v_18" depart="183.00" departLane="53o_0" departPos="5.10" departSpeed="0.00" departDelay="0.00" arrival="328.00" arrivalLane="51i_0" arrivalPos="10.00" arrivalSpeed="10.97" duration="145.00" routeLength="1014.90" waitingTime="40.00" waitingCount="1" stopTime="0.00" timeLoss="65.16" rerouteNo="0" devices="tripinfo_v_18" vType="type" speedFactor="0.94" vaporized=""/>
    <tripinfo id="v_21" depart="199.00" departLane="53o_0" departPos="5.10" departSpeed="0.00" departDelay="4.00" arrival="329.00" arrivalLane="52i_0" arrivalPos="10.00" arrivalSpeed="11.80" duration="130.00" routeLength="1009.73" waitingTime="26.00" waitingCount="1" stopTime="0.00" timeLoss="53.47" rerouteNo="0" devices="tripinfo_v_21" vType="type" speedFactor="1.01" vaporized=""/>
    <tripinfo id="v_23" depart="214.00" departLane="53o_0" departPos="5.10" departSpeed="0.00" departDelay="0.00" arrival="337.00" arrivalLane="51i_0" arrivalPos="10.00" arrivalSpeed="9.99" duration="123.00" routeLength="1014.90" waitingTime="15.00" waitingCount="1" stopTime="0.00" timeLoss="40.71" rerouteNo="0" devices="tripinfo_v_23" vType="type" speedFactor="0.89" vaporized=""/>
    <tripinfo id="v_26" depart="236.00" departLane="53o_0" departPos="5.10" departSpeed="0.00" departDelay="0.00" arrival="339.00" arrivalLane="54i_0" arrivalPos="10.00" arrivalSpeed="10.59" duration="103.00" routeLength="1015.10" waitingTime="0.00" waitingCount="0" stopTime="0.00" timeLoss="22.44" rerouteNo="0" devices="tripinfo_v_26" vType="type" speedFactor="0.92" vaporized=""/>
    <tripinfo id="v_27" depart="241.00" departLane="53o_0" departPos="5.10" departSpeed="0.00" departDelay="2.00" arrival="339.00" arrivalLane="51i_0" arrivalPos="10.00" arrivalSpeed="10.76" duration="98.00" routeLength="1014.90" waitingTime="0.00" waitingCount="0" stopTime="0.00" timeLoss="18.51" rerouteNo="0" devices="tripinfo_v_27" vType="type" speedFactor="0.95" vaporized=""/>
    <tripinfo id="v_28" depart="252.00" departLane="53o_0" departPos="5.10" departSpeed="0.00" departDelay="0.00" arrival="341.00" arrivalLane="51i_0" arrivalPos="10.00" arrivalSpeed="12.47" duration="89.00" routeLength="1014.90" waitingTime="0.00" waitingCount="0" stopTime="0.00" timeLoss="17.60" rerouteNo="0" devices="tripinfo_v_28" vType="type" speedFactor="1.13" vaporized=""/>
    <tripinfo id="v_30" depart="271.00" departLane="52o_0" departPos="5.10" departSpeed="0.00" departDelay="0.00" arrival="359.00" arrivalLane="53i_0" arrivalPos="10.00" arrivalSpeed="12.74" duration="88.00" routeLength="1014.90" waitingTime="0.00" waitingCount="0" stopTime="0.00" timeLoss="18.37" rerouteNo="0" devices="tripinfo_v_30" vType="type" speedFactor="1.18" vaporized=""/>
    <tripinfo id="v_32" depart="282.00" departLane="52o_0" departPos="5.10" departSpeed="0.00" departDelay="0.00" arrival="376.00" arrivalLane="53i_0" arrivalPos="10.00" arrivalSpeed="11.66" duration="94.00" routeLength="1014.90" waitingTime="0.00" waitingCount="0" stopTime="0.00" timeLoss="17.08" rerouteNo="0" devices="tripinfo_v_32" vType="type" speedFactor="1.01" vaporized=""/>
    <tripinfo id="v_33" depart="304.00" departLane="51o_0" departPos="5.10" departSpeed="0.00" departDelay="0.00" arrival="392.00" arrivalLane="54i_0" arrivalPos="10.00" arrivalSpeed="12.69" duration="88.00" routeLength="1014.90" waitingTime="0.00" waitingCount="0" stopTime="0.00" timeLoss="18.03" rerouteNo="0" devices="tripinfo_v_33" vType="type" speedFactor="1.17" vaporized=""/>
    <tripinfo id="v_1" depart="8.00" departLane="54o_0" departPos="5.10" departSpeed="0.00" departDelay="0.00" arrival="403.00" arrivalLane="51i_0" arrivalPos="10.00" arrivalSpeed="11.06" duration="395.00" routeLength="1000.70" waitingTime="301.00" waitingCount="1" stopTime="0.00" timeLoss="317.74" rerouteNo="0" devices="tripinfo_v_1" vType="type" speedFactor="0.94" vaporized=""/>
    <tripinfo id="v_29" depart="269.00" departLane="53o_0" departPos="5.10" departSpeed="0.00" departDelay="0.00" arrival="417.00" arrivalLane="52i_0" arrivalPos="10.00" arrivalSpeed="10.77" duration="148.00" routeLength="1009.73" waitingTime="43.00" waitingCount="1" stopTime="0.00" timeLoss="68.20" rerouteNo="0" devices="tripinfo_v_29" vType="type" speedFactor="0.93" vaporized=""/>
    <tripinfo id="v_34" depart="314.00" departLane="53o_0" departPos="5.10" departSpeed="0.00" departDelay="0.00" arrival="417.00" arrivalLane="54i_0" arrivalPos="10.00" arrivalSpeed="11.42" duration="103.00" routeLength="1015.10" waitingTime="2.00" waitingCount="1" stopTime="0.00" timeLoss="26.49" rerouteNo="0" devices="tripinfo_v_34" vType="type" speedFactor="0.99" vaporized=""/>
    <tripinfo id="v_38" depart="344.00" departLane="53o_0" departPos="5.10" departSpeed="0.00" departDelay="0.00" arrival="434.00" arrivalLane="51i_0" arrivalPos="10.00" arrivalSpeed="12.61" duration="90.00" routeLength="1014.90" waitingTime="0.00" waitingCount="0" stopTime="0.00" timeLoss="17.46" rerouteNo="0" devices="tripinfo_v_38" vType="type" speedFactor="1.10" vaporized=""/>
    <tripinfo id="v_35" depart="321.00" departLane="52o_0" departPos="5.10" departSpeed="0.00" departDelay="0.00" arrival="460.00" arrivalLane="54i_0" arrivalPos="10.00" arrivalSpeed="11.56" duration="139.00" routeLength="1009.73" waitingTime="38.00" waitingCount="1" stopTime="0.00" timeLoss="62.94" rerouteNo="0" devices="tripinfo_v_35" vType="type" speedFactor="1.02" vaporized=""/>
    <tripinfo id="v_36" depart="326.00" departLane="52o_0" departPos="5.10" departSpeed="0.00" departDelay="2.00" arrival="463.00" arrivalLane="51i_0" arrivalPos="10.00" arrivalSpeed="11.26" duration="137.00" routeLength="1015.10" waitingTime="35.00" waitingCount="1" stopTime="0.00" timeLoss="59.54" rerouteNo="0" devices="tripinfo_v_36" vType="type" speedFactor="0.97" vaporized=""/>
    <tripinfo id="v_37" depart="331.00" departLane="52o_0" departPos="5.10" departSpeed="0.00" departDelay="1.00" arrival="465.00" arrivalLane="51i_0" arrivalPos="10.00" arrivalSpeed="11.96" duration="134.00" routeLength="1015.10" waitingTime="29.00" waitingCount="1" stopTime="0.00" timeLoss="64.37" rerouteNo="0" devices="tripinfo_v_37" vType="type" speedFactor="1.18" vaporized=""/>
    <tripinfo id="v_39" depart="384.00" departLane="52o_0" departPos="5.10" departSpeed="0.00" departDelay="0.00" arrival="483.00" arrivalLane="54i_0" arrivalPos="10.00" arrivalSpeed="10.19" duration="99.00" routeLength="1009.73" waitingTime="0.00" waitingCount="0" stopTime="0.00" timeLoss="17.56" rerouteNo="0" devices="tripinfo_v_39" vType="type" speedFactor="0.90" vaporized=""/>
    <tripinfo id="v_40" depart="389.00" departLane="52o_0" departPos="5.10" departSpeed="0.00" departDelay="1.00" arrival="485.00" arrivalLane="54i_0" arrivalPos="10.00" arrivalSpeed="10.89" duration="96.00" routeLength="1009.73" waitingTime="0.00" waitingCount="0" stopTime="0.00" timeLoss="20.71" rerouteNo="0" devices="tripinfo_v_40" vType="type" speedFactor="1.03" vaporized=""/>
    <tripinfo id="v_42" depart="441.00" departLane="53o_0" departPos="5.10" departSpeed="0.00" departDelay="0.00" arrival="532.00" arrivalLane="52i_0" arrivalPos="10.00" arrivalSpeed="12.45" duration="91.00" routeLength="1009.73" waitingTime="0.00" waitingCount="0" stopTime="0.00" timeLoss="18.54" rerouteNo="0" devices="tripinfo_v_42" vType="type" speedFactor="1.09" vaporized=""/>
    <tripinfo id="v_44" depart="448.00" departLane="51o_0" departPos="5.10" departSpeed="0.00" departDelay="0.00" arrival="543.00" arrivalLane="53i_0" arrivalPos="10.00" arrivalSpeed="12.07" duration="95.00" routeLength="1009.73" waitingTime="0.00" waitingCount="0" stopTime="0.00" timeLoss="20.41" rerouteNo="0" devices="tripinfo_v_44" vType="type" speedFactor="1.04" vaporized=""/>
    <tripinfo id="v_45" depart="450.00" departLane="52o_0" departPos="5.10" departSpeed="0.00" departDelay="0.00" arrival="547.00" arrivalLane="53i_0" arrivalPos="10.00" arrivalSpeed="12.65" duration="97.00" routeLength="1014.90" waitingTime="0.00" waitingCount="0" stopTime="0.00" timeLoss="23.95" rerouteNo="0" devices="tripinfo_v_45" vType="type" speedFactor="1.09" vaporized=""/>
    <tripinfo id="v_43" depart="446.00" departLane="53o_0" departPos="5.10" departSpeed="0.00" departDelay="2.00" arrival="593.00" arrivalLane="52i_0" arrivalPos="10.00" arrivalSpeed="12.04" duration="147.00" routeLength="1009.73" waitingTime="48.00" waitingCount="1" stopTime="0.00" timeLoss="72.25" rerouteNo="0" devices="tripinfo_v_43" vType="type" speedFactor="1.04" vaporized=""/>
    <tripinfo id="v_48" depart="487.00" departLane="52o_0" departPos="5.10" departSpeed="0.00" departDelay="0.00" arrival="596.00" arrivalLane="53i_0" arrivalPos="10.00" arrivalSpeed="10.29" duration="109.00" routeLength="1014.90" waitingTime="0.00" waitingCount="0" stopTime="0.00" timeLoss="25.48" rerouteNo="0" devices="tripinfo_v_48" vType="type" speedFactor="0.88" vaporized=""/>
    <tripinfo id="v_46" depart="473.00" departLane="53o_0" departPos="5.10" departSpeed="0.00" departDelay="0.00" arrival="597.00" arrivalLane="52i_0" arrivalPos="10.00" arrivalSpeed="11.60" duration="124.00" routeLength="1009.73" waitingTime="21.00" waitingCount="1" stopTime="0.00" timeLoss="46.94" rerouteNo="0" devices="tripinfo_v_46" vType="type" speedFactor="1.00" vaporized=""/>
    <tripinfo id="v_47" depart="478.00" departLane="53o_0" departPos="5.10" departSpeed="0.00" departDelay="2.00" arrival="604.00" arrivalLane="52i_0" arrivalPos="10.00" arrivalSpeed="10.41" duration="126.00" routeLength="1009.73" waitingTime="19.00" waitingCount="1" stopTime="0.00" timeLoss="44.03" rerouteNo="0" devices="tripinfo_v_47" vType="type" speedFactor="0.90" vaporized=""/>
    <tripinfo id="v_52" depart="523.00" departLane="53o_0" departPos="5.10" departSpeed="0.00" departDelay="0.00" arrival="617.00" arrivalLane="51i_0" arrivalPos="10.00" arrivalSpeed="11.38" duration="94.00" routeLength="1014.90" waitingTime="0.00" waitingCount="0" stopTime="0.00" timeLoss="18.05" rerouteNo="0" devices="tripinfo_v_52" vType="type" speedFactor="1.02" vaporized=""/>
    <tripinfo id="v_54" depart="552.00" departLane="52o_0" departPos="5.10" departSpeed="0.00" departDelay="0.00" arrival="645.00" arrivalLane="53i_0" arrivalPos="10.00" arrivalSpeed="11.71" duration="93.00" routeLength="1014.90" waitingTime="0.00" waitingCount="0" stopTime="0.00" timeLoss="16.30" rerouteNo="0" devices="tripinfo_v_54" vType="type" speedFactor="1.00" vaporized=""/>
    <tripinfo id="v_49" depart="489.00" departLane="51o_0" departPos="5.10" departSpeed="0.00" departDelay="0.00" arrival="648.00" arrivalLane="52i_0" arrivalPos="10.00" arrivalSpeed="9.88" duration="159.00" routeLength="1015.10" waitingTime="49.00" waitingCount="1" stopTime="0.00" timeLoss="74.56" rerouteNo="0" devices="tripinfo_v_49" vType="type" speedFactor="0.85" vaporized=""/>
    <tripinfo id="v_55" depart="560.00" departLane="52o_0" departPos="5.10" departSpeed="0.00" departDelay="0.00" arrival="655.00" arrivalLane="54i_0" arrivalPos="10.00" arrivalSpeed="11.52" duration="95.00" routeLength="1009.73" waitingTime="0.00" waitingCount="0" stopTime="0.00" timeLoss="18.45" rerouteNo="0" devices="tripinfo_v_55" vType="type" speedFactor="1.00" vaporized=""/>
    <tripinfo id="v_57" depart="568.00" departLane="52o_0" departPos="5.10" departSpeed="0.00" departDelay="0.00" arrival="656.00" arrivalLane="51i_0" arrivalPos="10.00" arrivalSpeed="13.32" duration="88.00" routeLength="1015.10" waitingTime="0.00" waitingCount="0" stopTime="0.00" timeLoss="17.46" rerouteNo="0" devices="tripinfo_v_57" vType="type" speedFactor="1.14" vaporized=""/>
    <tripinfo id="v_56" depart="561.00" departLane="51o_0" departPos="5.10" departSpeed="0.00" departDelay="0.00" arrival="676.00" arrivalLane="54i_0" arrivalPos="10.00" arrivalSpeed="10.34" duration="115.00" routeLength="1014.90" waitingTime="8.00" waitingCount="1" stopTime="0.00" timeLoss="33.01" rerouteNo="0" devices="tripinfo_v_56" vType="type" speedFactor="0.90" vaporized=""/>
    <tripinfo id="v_53" depart="547.00" departLane="53o_0" departPos="5.10" departSpeed="0.00" departDelay="0.00" arrival="682.00" arrivalLane="54i_0" arrivalPos="10.00" arrivalSpeed="12.55" duration="135.00" routeLength="1015.10" waitingTime="35.00" waitingCount="1" stopTime="0.00" timeLoss="63.13" rerouteNo="0" devices="tripinfo_v_53" vType="type" speedFactor="1.10" vaporized=""/>
    <tripinfo id="v_58" depart="597.00" departLane="53o_0" departPos="5.10" departSpeed="0.00" departDelay="0.00" arrival="690.00" arrivalLane="51i_0" arrivalPos="10.00" arrivalSpeed="11.61" duration="93.00" routeLength="1014.90" waitingTime="0.00" waitingCount="0" stopTime="0.00" timeLoss="16.87" rerouteNo="0" devices="tripinfo_v_58" vType="type" speedFactor="1.02" vaporized=""/>
    <tripinfo id="v_60" depart="610.00" departLane="53o_0" departPos="5.10" departSpeed="0.00" departDelay="0.00" arrival="701.00" arrivalLane="54i_0" arrivalPos="10.00" arrivalSpeed="12.06" duration="91.00" routeLength="1015.10" waitingTime="0.00" waitingCount="0" stopTime="0.00" timeLoss="18.69" rerouteNo="0" devices="tripinfo_v_60" vType="type" speedFactor="1.08" vaporized=""/>
    <tripinfo id="v_61" depart="615.00" departLane="53o_0" departPos="5.10" departSpeed="0.00" departDelay="3.00" arrival="703.00" arrivalLane="54i_0" arrivalPos="10.00" arrivalSpeed="12.85" duration="88.00" routeLength="1015.10" waitingTime="0.00" waitingCount="0" stopTime="0.00" timeLoss="16.82" rerouteNo="0" devices="tripinfo_v_61" vType="type" speedFactor="1.12" vaporized=""/>
    <tripinfo id="v_8" depart="83.00" departLane="54o_0" departPos="5.10" departSpeed="0.00" departDelay="0.00" arrival="710.00" arrivalLane="51i_0" arrivalPos="10.00" arrivalSpeed="11.10" duration="627.00" routeLength="1000.70" waitingTime="528.00" waitingCount="2" stopTime="0.00" timeLoss="549.68" rerouteNo="0" devices="tripinfo_v_8" vType="type" speedFactor="0.94" vaporized=""/>
    <tripinfo id="v_62" depart="613.00" departLane="51o_0" departPos="5.10" departSpeed="0.00" departDelay="0.00" arrival="730.00" arrivalLane="52i_0" arrivalPos="10.00" arrivalSpeed="11.55" duration="117.00" routeLength="1015.10" waitingTime="15.00" waitingCount="1" stopTime="0.00" timeLoss="41.27" rerouteNo="0" devices="tripinfo_v_62" vType="type" speedFactor="1.02" vaporized=""/>
    <tripinfo id="v_63" depart="618.00" departLane="52o_0" departPos="5.10" departSpeed="0.00" departDelay="0.00" arrival="731.00" arrivalLane="54i_0" arrivalPos="10.00" arrivalSpeed="11.53" duration="113.00" routeLength="1009.73" waitingTime="11.00" waitingCount="1" stopTime="0.00" timeLoss="35.73" rerouteNo="0" devices="tripinfo_v_63" vType="type" speedFactor="0.99" vaporized=""/>
    <tripinfo id="v_65" depart="643.00" departLane="52o_0" departPos="5.10" departSpeed="0.00" departDelay="0.00" arrival="742.00" arrivalLane="51i_0" arrivalPos="10.00" arrivalSpeed="10.18" duration="99.00" routeLength="1015.10" waitingTime="0.00" waitingCount="0" stopTime="0.00" timeLoss="16.93" rerouteNo="0" devices="tripinfo_v_65" vType="type" speedFactor="0.88" vaporized=""/>
    <tripinfo id="v_69" depart="690.00" departLane="52o_0" departPos="5.10" departSpeed="0.00" departDelay="0.00" arrival="821.00" arrivalLane="53i_0" arrivalPos="10.00" arrivalSpeed="11.81" duration="131.00" routeLength="1014.90" waitingTime="29.00" waitingCount="1" stopTime="0.00" timeLoss="54.86" rerouteNo="0" devices="tripinfo_v_69" vType="type" speedFactor="1.02" vaporized=""/>
    <tripinfo id="v_67" depart="674.00" departLane="52o_0" departPos="5.10" departSpeed="0.00" departDelay="0.00" arrival="823.00" arrivalLane="54i_0" arrivalPos="10.00" arrivalSpeed="10.57" duration="149.00" routeLength="1009.73" waitingTime="44.00" waitingCount="1" stopTime="0.00" timeLoss="68.55" rerouteNo="0" devices="tripinfo_v_67" vType="type" speedFactor="0.91" vaporized=""/>
    <tripinfo id="v_73" depart="781.00" departLane="53o_0" departPos="5.10" departSpeed="0.00" departDelay="0.00" arrival="872.00" arrivalLane="54i_0" arrivalPos="10.00" arrivalSpeed="11.84" duration="91.00" routeLength="1015.10" waitingTime="0.00" waitingCount="0" stopTime="0.00" timeLoss="17.23" rerouteNo="0" devices="tripinfo_v_73" vType="type" speedFactor="1.06" vaporized=""/>
    <tripinfo id="v_77" depart="810.00" departLane="52o_0" departPos="5.10" departSpeed="0.00" departDelay="0.00" arrival="905.00" arrivalLane="53i_0" arrivalPos="10.00" arrivalSpeed="11.33" duration="95.00" routeLength="1014.90" waitingTime="0.00" waitingCount="0" stopTime="0.00" timeLoss="16.85" rerouteNo="0" devices="tripinfo_v_77" vType="type" speedFactor="0.98" vaporized=""/>
    <tripinfo id="v_72" depart="767.00" departLane="51o_0" departPos="5.10" departSpeed="0.00" departDelay="0.00" arrival="913.00" arrivalLane="54i_0" arrivalPos="10.00" arrivalSpeed="10.68" duration="146.00" routeLength="1014.90" waitingTime="42.00" waitingCount="1" stopTime="0.00" timeLoss="65.78" rerouteNo="0" devices="tripinfo_v_72" vType="type" speedFactor="0.94" vaporized=""/>
    <tripinfo id="v_78" depart="821.00" departLane="53o_0" departPos="5.10" departSpeed="0.00" departDelay="2.00" arrival="954.00" arrivalLane="52i_0" arrivalPos="10.00" arrivalSpeed="11.86" duration="133.00" routeLength="1009.73" waitingTime="32.00" waitingCount="1" stopTime="0.00" timeLoss="57.19" rerouteNo="0" devices="tripinfo_v_78" vType="type" speedFactor="1.01" vaporized=""/>
    <tripinfo id="v_79" depart="827.00" departLane="53o_0" departPos="5.10" departSpeed="0.00" departDelay="0.00" arrival="955.00" arrivalLane="54i_0" arrivalPos="10.00" arrivalSpeed="12.76" duration="128.00" routeLength="1015.10" waitingTime="27.00" waitingCount="1" stopTime="0.00" timeLoss="55.33" rerouteNo="0" devices="tripinfo_v_79" vType="type" speedFactor="1.09" vaporized=""/>
    <tripinfo id="v_84" depart="897.00" departLane="53o_0" departPos="5.10" departSpeed="0.00" departDelay="0.00" arrival="984.00" arrivalLane="51i_0" arrivalPos="10.00" arrivalSpeed="13.04" duration="87.00" routeLength="1014.90" waitingTime="0.00" waitingCount="0" stopTime="0.00" timeLoss="15.60" rerouteNo="0" devices="tripinfo_v_84" vType="type" speedFactor="1.15" vaporized=""/>
    <tripinfo id="v_80" depart="852.00" departLane="51o_0" departPos="5.10" departSpeed="0.00" departDelay="0.00" arrival="998.00" arrivalLane="53i_0" arrivalPos="10.00" arrivalSpeed="11.92" duration="146.00" routeLength="1009.73" waitingTime="47.00" waitingCount="1" stopTime="0.00" timeLoss="71.26" rerouteNo="0" devices="tripinfo_v_80" vType="type" speedFactor="1.03" vaporized=""/>
    <tripinfo id="v_82" depart="872.00" departLane="52o_0" departPos="5.10" departSpeed="0.00" departDelay="0.00" arrival="999.00" arrivalLane="51i_0" arrivalPos="10.00" arrivalSpeed="11.61" duration="127.00" routeLength="1015.10" waitingTime="26.00" waitingCount="1" stopTime="0.00" timeLoss="51.81" rerouteNo="0" devices="tripinfo_v_82" vType="type" speedFactor="1.02" vaporized=""/>
    <tripinfo id="v_81" depart="866.00" departLane="51o_0" departPos="5.10" departSpeed="0.00" departDelay="0.00" arrival="1002.00" arrivalLane="52i_0" arrivalPos="10.00" arrivalSpeed="11.31" duration="136.00" routeLength="1015.10" waitingTime="34.00" waitingCount="1" stopTime="0.00" timeLoss="60.13" rerouteNo="0" devices="tripinfo_v_81" vType="type" speedFactor="1.00" vaporized=""/>
    <tripinfo id="v_83" depart="889.00" departLane="52o_0" departPos="5.10" departSpeed="0.00" departDelay="0.00" arrival="1003.00" arrivalLane="54i_0" arrivalPos="10.00" arrivalSpeed="11.51" duration="114.00" routeLength="1009.73" waitingTime="11.00" waitingCount="1" stopTime="0.00" timeLoss="36.14" rerouteNo="0" devices="tripinfo_v_83" vType="type" speedFactor="0.97" vaporized=""/>
    <tripinfo id="v_14" depart="153.00" departLane="54o_0" departPos="5.10" departSpeed="0.00" departDelay="0.00" arrival="1014.00" arrivalLane="51i_0" arrivalPos="10.00" arrivalSpeed="11.30" duration="861.00" routeLength="1000.70" waitingTime="758.00" waitingCount="3" stopTime="0.00" timeLoss="785.58" rerouteNo="0" devices="tripinfo_v_14" vType="type" speedFactor="0.99" vaporized=""/>
    <tripinfo id="v_86" depart="920.00" departLane="53o_0" departPos="5.10" departSpeed="0.00" departDelay="0.00" arrival="1053.00" arrivalLane="51i_0" arrivalPos="10.00" arrivalSpeed="11.27" duration="133.00" routeLength="1014.90" waitingTime="26.00" waitingCount="2" stopTime="0.00" timeLoss="55.87" rerouteNo="0" devices="tripinfo_v_86" vType="type" speedFactor="1.00" vaporized=""/>
    <tripinfo id="v_24" depart="215.00" departLane="54o_0" departPos="5.10" departSpeed="0.00" departDelay="0.00" arrival="1054.00" arrivalLane="53i_0" arrivalPos="10.00" arrivalSpeed="9.62" duration="839.00" routeLength="1015.10" waitingTime="709.00" waitingCount="4" stopTime="0.00" timeLoss="751.98" rerouteNo="0" devices="tripinfo_v_24" vType="type" speedFactor="0.83" vaporized=""/>
    <tripinfo id="v_87" depart="930.00" departLane="53o_0" departPos="5.10" departSpeed="0.00" departDelay="0.00" arrival="1054.00" arrivalLane="54i_0" arrivalPos="10.00" arrivalSpeed="11.97" duration="124.00" routeLength="1015.10" waitingTime="16.00" waitingCount="2" stopTime="0.00" timeLoss="49.93" rerouteNo="0" devices="tripinfo_v_87" vType="type" speedFactor="1.04" vaporized=""/>
    <tripinfo id="v_90" depart="955.00" departLane="53o_0" departPos="5.10" departSpeed="0.00" departDelay="0.00" arrival="1056.00" arrivalLane="51i_0" arrivalPos="10.00" arrivalSpeed="10.99" duration="101.00" routeLength="1014.90" waitingTime="0.00" waitingCount="0" stopTime="0.00" timeLoss="24.91" rerouteNo="0" devices="tripinfo_v_90" vType="type" speedFactor="1.02" vaporized=""/>
    <tripinfo id="v_94" depart="976.00" departLane="53o_0" departPos="5.10" departSpeed="0.00" departDelay="0.00" arrival="1068.00" arrivalLane="54i_0" arrivalPos="10.00" arrivalSpeed="12.54" duration="92.00" routeLength="1015.10" waitingTime="0.00" waitingCount="0" stopTime="0.00" timeLoss="19.98" rerouteNo="0" devices="tripinfo_v_94" vType="type" speedFactor="1.09" vaporized=""/>