<?xml version="1.0" encoding="UTF-8"?>

<!-- generated on 2022-08-17 11:05:04 by Eclipse SUMO GUI Version 1.13.0
<configuration xmlns:xsi="http://www.w3.org/2001/XMLSchema-instance" xsi:noNamespaceSchemaLocation="http://sumo.dlr.de/xsd/sumoConfiguration.xsd">

    <input>
        <net-file value="data/cross.net.xml"/>
        <route-files value="data/cross.rou.xml"/>
        <additional-files value="data/cross.det.xml"/>
    </input>

    <output>
        <tripinfo-output value="tripinfo.xml"/>
    </output>

    <time>
        <begin value="0"/>
    </time>

    <report>
        <verbose value="true"/>
        <no-step-log value="true"/>
    </report>

    <traci_server>
        <remote-port value="52528"/>
    </traci_server>

</configuration>
-->

<tripinfos xmlns:xsi="http://www.w3.org/2001/XMLSchema-instance" xsi:noNamespaceSchemaLocation="http://sumo.dlr.de/xsd/tripinfo_file.xsd">
    <tripinfo id="v_0" depart="0.00" departLane="52i_0" departPos="5.10" departSpeed="0.00" departDelay="0.00" arrival="101.00" arrivalLane="53o_0" arrivalPos="10.00" arrivalSpeed="11.59" duration="101.00" routeLength="1009.73" waitingTime="1.00" waitingCount="1" stopTime="0.00" timeLoss="26.66" rerouteNo="0" devices="tripinfo_v_0" vType="type" speedFactor="1.06" vaporized=""/>
    <tripinfo id="v_4" depart="9.00" departLane="52i_0" departPos="5.10" departSpeed="0.00" departDelay="0.00" arrival="104.00" arrivalLane="53o_0" arrivalPos="10.00" arrivalSpeed="11.33" duration="95.00" routeLength="1009.73" waitingTime="0.00" waitingCount="0" stopTime="0.00" timeLoss="19.70" rerouteNo="0" devices="tripinfo_v_4" vType="type" speedFactor="1.03" vaporized=""/>
    <tripinfo id="v_2" depart="2.00" departLane="53i_0" departPos="5.10" departSpeed="0.00" departDelay="0.00" arrival="117.00" arrivalLane="51o_0" arrivalPos="10.00" arrivalSpeed="11.00" duration="115.00" routeLength="1015.10" waitingTime="14.00" waitingCount="1" stopTime="0.00" timeLoss="39.35" rerouteNo="0" devices="tripinfo_v_2" vType="type" speedFactor="1.01" vaporized=""/>
    <tripinfo id="v_1" depart="2.00" departLane="51i_0" departPos="5.10" departSpeed="0.00" departDelay="0.00" arrival="120.00" arrivalLane="53o_0" arrivalPos="10.00" arrivalSpeed="10.03" duration="118.00" routeLength="1015.10" waitingTime="14.00" waitingCount="1" stopTime="0.00" timeLoss="38.14" rerouteNo="0" devices="tripinfo_v_1" vType="type" speedFactor="0.94" vaporized=""/>
    <tripinfo id="v_3" depart="7.00" departLane="51i_0" departPos="5.10" departSpeed="0.00" departDelay="3.00" arrival="122.00" arrivalLane="53o_0" arrivalPos="10.00" arrivalSpeed="11.07" duration="115.00" routeLength="1015.10" waitingTime="10.00" waitingCount="1" stopTime="0.00" timeLoss="41.51" rerouteNo="0" devices="tripinfo_v_3" vType="type" speedFactor="1.08" vaporized=""/>
    <tripinfo id="v_5" depart="15.00" departLane="53i_0" departPos="5.10" departSpeed="0.00" departDelay="0.00" arrival="128.00" arrivalLane="51o_0" arrivalPos="10.00" arrivalSpeed="8.96" duration="113.00" routeLength="1015.10" waitingTime="1.00" waitingCount="1" stopTime="0.00" timeLoss="25.88" rerouteNo="0" devices="tripinfo_v_5" vType="type" speedFactor="0.83" vaporized=""/>
    <tripinfo id="v_6" depart="20.00" departLane="54i_0" departPos="5.10" departSpeed="0.00" departDelay="0.00" arrival="130.00" arrivalLane="51o_0" arrivalPos="10.00" arrivalSpeed="9.87" duration="110.00" routeLength="1009.73" waitingTime="8.00" waitingCount="1" stopTime="0.00" timeLoss="34.99" rerouteNo="0" devices="tripinfo_v_6" vType="type" speedFactor="1.05" vaporized=""/>
    <tripinfo id="v_7" depart="23.00" departLane="52i_0" departPos="5.10" departSpeed="0.00" departDelay="0.00" arrival="135.00" arrivalLane="54o_0" arrivalPos="10.00" arrivalSpeed="9.83" duration="112.00" routeLength="1015.10" waitingTime="6.00" waitingCount="1" stopTime="0.00" timeLoss="29.50" rerouteNo="0" devices="tripinfo_v_7" vType="type" speedFactor="0.89" vaporized=""/>
    <tripinfo id="v_9" depart="29.00" departLane="52i_0" departPos="5.10" departSpeed="0.00" departDelay="0.00" arrival="140.00" arrivalLane="54o_0" arrivalPos="10.00" arrivalSpeed="9.50" duration="111.00" routeLength="1015.10" waitingTime="1.00" waitingCount="1" stopTime="0.00" timeLoss="26.24" rerouteNo="0" devices="tripinfo_v_9" vType="type" speedFactor="0.86" vaporized=""/>
    <tripinfo id="v_8" depart="29.00" departLane="51i_0" departPos="5.10" departSpeed="0.00" departDelay="0.00" arrival="146.00" arrivalLane="53o_0" arrivalPos="10.00" arrivalSpeed="10.06" duration="117.00" routeLength="1015.10" waitingTime="11.00" waitingCount="1" stopTime="0.00" timeLoss="37.51" rerouteNo="0" devices="tripinfo_v_8" vType="type" speedFactor="0.94" vaporized=""/>
    <tripinfo id="v_10" depart="64.00" departLane="54i_0" departPos="5.10" departSpeed="0.00" departDelay="0.00" arrival="156.00" arrivalLane="52o_0" arrivalPos="10.00" arrivalSpeed="12.08" duration="92.00" routeLength="1015.10" waitingTime="0.00" waitingCount="0" stopTime="0.00" timeLoss="19.07" rerouteNo="0" devices="tripinfo_v_10" vType="type" speedFactor="1.09" vaporized=""/>
    <tripinfo id="v_11" depart="69.00" departLane="54i_0" departPos="5.10" departSpeed="0.00" departDelay="0.00" arrival="176.00" arrivalLane="52o_0" arrivalPos="10.00" arrivalSpeed="11.04" duration="107.00" routeLength="1015.10" waitingTime="6.00" waitingCount="1" stopTime="0.00" timeLoss="32.01" rerouteNo="0" devices="tripinfo_v_11" vType="type" speedFactor="1.03" vaporized=""/>
    <tripinfo id="v_13" depart="77.00" departLane="54i_0" departPos="5.10" departSpeed="0.00" departDelay="0.00" arrival="178.00" arrivalLane="52o_0" arrivalPos="10.00" arrivalSpeed="12.14" duration="101.00" routeLength="1015.10" waitingTime="0.00" waitingCount="0" stopTime="0.00" timeLoss="29.49" rerouteNo="0" devices="tripinfo_v_13" vType="type" speedFactor="1.12" vaporized=""/>
    <tripinfo id="v_12" depart="71.00" departLane="52i_0" departPos="5.10" departSpeed="0.00" departDelay="0.00" arrival="185.00" arrivalLane="51o_0" arrivalPos="10.00" arrivalSpeed="11.63" duration="114.00" routeLength="1014.90" waitingTime="8.00" waitingCount="2" stopTime="0.00" timeLoss="38.70" rerouteNo="0" devices="tripinfo_v_12" vType="type" speedFactor="1.05" vaporized=""/>
    <tripinfo id="v_15" depart="88.00" departLane="52i_0" departPos="5.10" departSpeed="0.00" departDelay="0.00" arrival="194.00" arrivalLane="54o_0" arrivalPos="10.00" arrivalSpeed="10.11" duration="106.00" routeLength="1015.10" waitingTime="0.00" waitingCount="0" stopTime="0.00" timeLoss="26.00" rerouteNo="0" devices="tripinfo_v_15" vType="type" speedFactor="0.93" vaporized=""/>
    <tripinfo id="v_14" depart="82.00" departLane="51i_0" departPos="5.10" departSpeed="0.00" departDelay="0.00" arrival="200.00" arrivalLane="53o_0" arrivalPos="10.00" arrivalSpeed="10.88" duration="118.00" routeLength="1015.10" waitingTime="16.00" waitingCount="1" stopTime="0.00" timeLoss="41.18" rerouteNo="0" devices="tripinfo_v_14" vType="type" speedFactor="0.99" vaporized=""/>
    <tripinfo id="v_16" depart="94.00" departLane="53i_0" departPos="5.10" departSpeed="0.00" departDelay="0.00" arrival="206.00" arrivalLane="51o_0" arrivalPos="10.00" arrivalSpeed="9.70" duration="112.00" routeLength="1015.10" waitingTime="5.00" waitingCount="1" stopTime="0.00" timeLoss="28.61" rerouteNo="0" devices="tripinfo_v_16" vType="type" speedFactor="0.88" vaporized=""/>
    <tripinfo id="v_17" depart="101.00" departLane="53i_0" departPos="5.10" departSpeed="0.00" departDelay="2.00" arrival="207.00" arrivalLane="51o_0" arrivalPos="10.00" arrivalSpeed="10.10" duration="106.00" routeLength="1015.10" waitingTime="0.00" waitingCount="0" stopTime="0.00" timeLoss="26.84" rerouteNo="0" devices="tripinfo_v_17" vType="type" speedFactor="0.94" vaporized=""/>
    <tripinfo id="v_18" depart="102.00" departLane="52i_0" departPos="5.10" departSpeed="0.00" departDelay="0.00" arrival="215.00" arrivalLane="54o_0" arrivalPos="10.00" arrivalSpeed="10.27" duration="113.00" routeLength="1015.10" waitingTime="9.00" waitingCount="1" stopTime="0.00" timeLoss="33.12" rerouteNo="0" devices="tripinfo_v_18" vType="type" speedFactor="0.94" vaporized=""/>
    <tripinfo id="v_20" depart="118.00" departLane="52i_0" departPos="5.10" departSpeed="0.00" departDelay="0.00" arrival="217.00" arrivalLane="54o_0" arrivalPos="10.00" arrivalSpeed="11.25" duration="99.00" routeLength="1015.10" waitingTime="0.00" waitingCount="0" stopTime="0.00" timeLoss="22.71" rerouteNo="0" devices="tripinfo_v_20" vType="type" speedFactor="1.02" vaporized=""/>
    <tripinfo id="v_23" depart="123.00" departLane="54i_0" departPos="5.10" departSpeed="0.00" departDelay="0.00" arrival="223.00" arrivalLane="52o_0" arrivalPos="10.00" arrivalSpeed="9.69" duration="100.00" routeLength="1015.10" waitingTime="0.00" waitingCount="0" stopTime="0.00" timeLoss="17.13" rerouteNo="0" devices="tripinfo_v_23" vType="type" speedFactor="0.89" vaporized=""/>
    <tripinfo id="v_19" depart="115.00" departLane="53i_0" departPos="5.10" departSpeed="0.00" departDelay="0.00" arrival="225.00" arrivalLane="51o_0" arrivalPos="10.00" arrivalSpeed="12.81" duration="110.00" routeLength="1015.10" waitingTime="11.00" waitingCount="1" stopTime="0.00" timeLoss="39.68" rerouteNo="0" devices="tripinfo_v_19" vType="type" speedFactor="1.16" vaporized=""/>
    <tripinfo id="v_21" depart="120.00" departLane="51i_0" departPos="5.10" departSpeed="0.00" departDelay="0.00" arrival="229.00" arrivalLane="53o_0" arrivalPos="10.00" arrivalSpeed="11.18" duration="109.00" routeLength="1015.10" waitingTime="7.00" waitingCount="1" stopTime="0.00" timeLoss="32.68" rerouteNo="0" devices="tripinfo_v_21" vType="type" speedFactor="1.01" vaporized=""/>
    <tripinfo id="v_22" depart="122.00" departLane="53i_0" departPos="5.10" departSpeed="0.00" departDelay="2.00" arrival="233.00" arrivalLane="51o_0" arrivalPos="10.00" arrivalSpeed="10.66" duration="111.00" routeLength="1015.10" waitingTime="6.00" waitingCount="1" stopTime="0.00" timeLoss="33.11" rerouteNo="0" devices="tripinfo_v_22" vType="type" speedFactor="0.97" vaporized=""/>
    <tripinfo id="v_24" depart="126.00" departLane="51i_0" departPos="5.10" departSpeed="0.00" departDelay="0.00" arrival="240.00" arrivalLane="52o_0" arrivalPos="10.00" arrivalSpeed="8.90" duration="114.00" routeLength="1009.73" waitingTime="1.00" waitingCount="1" stopTime="0.00" timeLoss="25.67" rerouteNo="0" devices="tripinfo_v_24" vType="type" speedFactor="0.83" vaporized=""/>
    <tripinfo id="v_25" depart="129.00" departLane="53i_0" departPos="5.10" departSpeed="0.00" departDelay="0.00" arrival="240.00" arrivalLane="51o_0" arrivalPos="10.00" arrivalSpeed="9.50" duration="111.00" routeLength="1015.10" waitingTime="3.00" waitingCount="1" stopTime="0.00" timeLoss="27.46" rerouteNo="0" devices="tripinfo_v_25" vType="type" speedFactor="0.87" vaporized=""/>
    <tripinfo id="v_28" depart="152.00" departLane="52i_0" departPos="5.10" departSpeed="0.00" departDelay="0.00" arrival="243.00" arrivalLane="54o_0" arrivalPos="10.00" arrivalSpeed="12.39" duration="91.00" routeLength="1015.10" waitingTime="0.00" waitingCount="0" stopTime="0.00" timeLoss="19.41" rerouteNo="0" devices="tripinfo_v_28" vType="type" speedFactor="1.13" vaporized=""/>
    <tripinfo id="v_30" depart="171.00" departLane="53i_0" departPos="5.10" departSpeed="0.00" departDelay="0.00" arrival="257.00" arrivalLane="51o_0" arrivalPos="10.00" arrivalSpeed="12.99" duration="86.00" routeLength="1015.10" waitingTime="0.00" waitingCount="0" stopTime="0.00" timeLoss="16.80" rerouteNo="0" devices="tripinfo_v_30" vType="type" speedFactor="1.18" vaporized=""/>
    <tripinfo id="v_26" depart="140.00" departLane="54i_0" departPos="5.10" departSpeed="0.00" departDelay="0.00" arrival="260.00" arrivalLane="53o_0" arrivalPos="10.00" arrivalSpeed="9.85" duration="120.00" routeLength="1014.90" waitingTime="10.00" waitingCount="2" stopTime="0.00" timeLoss="38.22" rerouteNo="0" devices="tripinfo_v_26" vType="type" speedFactor="0.92" vaporized=""/>
    <tripinfo id="v_27" depart="145.00" departLane="54i_0" departPos="5.10" departSpeed="0.00" departDelay="3.00" arrival="262.00" arrivalLane="53o_0" arrivalPos="10.00" arrivalSpeed="10.43" duration="117.00" routeLength="1014.90" waitingTime="7.00" waitingCount="2" stopTime="0.00" timeLoss="36.74" rerouteNo="0" devices="tripinfo_v_27" vType="type" speedFactor="0.95" vaporized=""/>
    <tripinfo id="v_29" depart="163.00" departLane="54i_0" departPos="5.10" departSpeed="0.00" departDelay="0.00" arrival="262.00" arrivalLane="52o_0" arrivalPos="10.00" arrivalSpeed="10.24" duration="99.00" routeLength="1015.10" waitingTime="0.00" waitingCount="0" stopTime="0.00" timeLoss="19.29" rerouteNo="0" devices="tripinfo_v_29" vType="type" speedFactor="0.93" vaporized=""/>
    <tripinfo id="v_31" depart="174.00" departLane="52i_0" departPos="5.10" departSpeed="0.00" departDelay="0.00" arrival="272.00" arrivalLane="54o_0" arrivalPos="10.00" arrivalSpeed="12.75" duration="98.00" routeLength="1015.10" waitingTime="1.00" waitingCount="1" stopTime="0.00" timeLoss="27.26" rerouteNo="0" devices="tripinfo_v_31" vType="type" speedFactor="1.15" vaporized=""/>
    <tripinfo id="v_32" depart="196.00" departLane="52i_0" departPos="5.10" departSpeed="0.00" departDelay="0.00" arrival="304.00" arrivalLane="54o_0" arrivalPos="10.00" arrivalSpeed="10.85" duration="108.00" routeLength="1015.10" waitingTime="5.00" waitingCount="1" stopTime="0.00" timeLoss="32.08" rerouteNo="0" devices="tripinfo_v_32" vType="type" speedFactor="1.01" vaporized=""/>
    <tripinfo id="v_37" depart="217.00" departLane="54i_0" departPos="5.10" departSpeed="0.00" departDelay="0.00" arrival="305.00" arrivalLane="52o_0" arrivalPos="10.00" arrivalSpeed="12.74" duration="88.00" routeLength="1015.10" waitingTime="0.00" waitingCount="0" stopTime="0.00" timeLoss="18.61" rerouteNo="0" devices="tripinfo_v_37" vType="type" speedFactor="1.18" vaporized=""/>
    <tripinfo id="v_33" depart="201.00" departLane="52i_0" departPos="5.10" departSpeed="0.00" departDelay="3.00" arrival="306.00" arrivalLane="54o_0" arrivalPos="10.00" arrivalSpeed="12.24" duration="105.00" routeLength="1015.10" waitingTime="3.00" waitingCount="1" stopTime="0.00" timeLoss="35.19" rerouteNo="0" devices="tripinfo_v_33" vType="type" speedFactor="1.17" vaporized=""/>
    <tripinfo id="v_34" depart="206.00" departLane="52i_0" departPos="5.10" departSpeed="0.00" departDelay="2.00" arrival="321.00" arrivalLane="51o_0" arrivalPos="10.00" arrivalSpeed="10.82" duration="115.00" routeLength="1014.90" waitingTime="5.00" waitingCount="1" stopTime="0.00" timeLoss="37.78" rerouteNo="0" devices="tripinfo_v_34" vType="type" speedFactor="0.99" vaporized=""/>
    <tripinfo id="v_35" depart="211.00" departLane="52i_0" departPos="5.10" departSpeed="0.00" departDelay="4.00" arrival="323.00" arrivalLane="54o_0" arrivalPos="10.00" arrivalSpeed="11.21" duration="112.00" routeLength="1015.10" waitingTime="5.00" waitingCount="1" stopTime="0.00" timeLoss="36.17" rerouteNo="0" devices="tripinfo_v_35" vType="type" speedFactor="1.02" vaporized=""/>
    <tripinfo id="v_38" depart="229.00" departLane="53i_0" departPos="5.10" departSpeed="0.00" departDelay="0.00" arrival="331.00" arrivalLane="51o_0" arrivalPos="10.00" arrivalSpeed="12.07" duration="102.00" routeLength="1015.10" waitingTime="2.00" waitingCount="1" stopTime="0.00" timeLoss="29.67" rerouteNo="0" devices="tripinfo_v_38" vType="type" speedFactor="1.10" vaporized=""/>
    <tripinfo id="v_36" depart="211.00" departLane="53i_0" departPos="5.10" departSpeed="0.00" departDelay="0.00" arrival="333.00" arrivalLane="52o_0" arrivalPos="10.00" arrivalSpeed="10.71" duration="122.00" routeLength="1014.90" waitingTime="19.00" waitingCount="1" stopTime="0.00" timeLoss="43.16" rerouteNo="0" devices="tripinfo_v_36" vType="type" speedFactor="0.97" vaporized=""/>
    <tripinfo id="v_41" depart="243.00" departLane="51i_0" departPos="5.10" departSpeed="0.00" departDelay="0.00" arrival="338.00" arrivalLane="53o_0" arrivalPos="10.00" arrivalSpeed="10.53" duration="95.00" routeLength="1015.10" waitingTime="0.00" waitingCount="0" stopTime="0.00" timeLoss="16.23" rerouteNo="0" devices="tripinfo_v_41" vType="type" speedFactor="0.96" vaporized=""/>
    <tripinfo id="v_43" depart="247.00" departLane="53i_0" departPos="5.10" departSpeed="0.00" departDelay="0.00" arrival="339.00" arrivalLane="51o_0" arrivalPos="10.00" arrivalSpeed="11.30" duration="92.00" routeLength="1015.10" waitingTime="0.00" waitingCount="0" stopTime="0.00" timeLoss="17.20" rerouteNo="0" devices="tripinfo_v_43" vType="type" speedFactor="1.04" vaporized=""/>
    <tripinfo id="v_42" depart="248.00" departLane="51i_0" departPos="5.10" departSpeed="0.00" departDelay="2.00" arrival="343.00" arrivalLane="54o_0" arrivalPos="10.00" arrivalSpeed="12.02" duration="95.00" routeLength="1014.90" waitingTime="0.00" waitingCount="0" stopTime="0.00" timeLoss="21.63" rerouteNo="0" devices="tripinfo_v_42" vType="type" speedFactor="1.09" vaporized=""/>
    <tripinfo id="v_44" depart="251.00" departLane="52i_0" departPos="5.10" departSpeed="0.00" departDelay="0.00" arrival="355.00" arrivalLane="54o_0" arrivalPos="10.00" arrivalSpeed="11.47" duration="104.00" routeLength="1015.10" waitingTime="4.00" waitingCount="1" stopTime="0.00" timeLoss="29.37" rerouteNo="0" devices="tripinfo_v_44" vType="type" speedFactor="1.04" vaporized=""/>
    <tripinfo id="v_51" depart="284.00" departLane="52i_0" departPos="5.10" departSpeed="0.00" departDelay="1.00" arrival="375.00" arrivalLane="51o_0" arrivalPos="10.00" arrivalSpeed="12.79" duration="91.00" routeLength="1014.90" waitingTime="0.00" waitingCount="0" stopTime="0.00" timeLoss="20.04" rerouteNo="0" devices="tripinfo_v_51" vType="type" speedFactor="1.17" vaporized=""/>
    <tripinfo id="v_48" depart="279.00" departLane="52i_0" departPos="5.10" departSpeed="0.00" departDelay="0.00" arrival="377.00" arrivalLane="54o_0" arrivalPos="10.00" arrivalSpeed="9.63" duration="98.00" routeLength="1015.10" waitingTime="0.00" waitingCount="0" stopTime="0.00" timeLoss="15.29" rerouteNo="0" devices="tripinfo_v_48" vType="type" speedFactor="0.88" vaporized=""/>
    <tripinfo id="v_52" depart="289.00" departLane="52i_0" departPos="5.10" departSpeed="0.00" departDelay="4.00" arrival="382.00" arrivalLane="53o_0" arrivalPos="10.00" arrivalSpeed="11.08" duration="93.00" routeLength="1009.73" waitingTime="0.00" waitingCount="0" stopTime="0.00" timeLoss="16.77" rerouteNo="0" devices="tripinfo_v_52" vType="type" speedFactor="1.02" vaporized=""/>
    <tripinfo id="v_40" depart="238.00" departLane="54i_0" departPos="5.10" departSpeed="0.00" departDelay="0.00" arrival="392.00" arrivalLane="52o_0" arrivalPos="10.00" arrivalSpeed="11.06" duration="154.00" routeLength="1015.10" waitingTime="47.00" waitingCount="2" stopTime="0.00" timeLoss="79.16" rerouteNo="0" devices="tripinfo_v_40" vType="type" speedFactor="1.03" vaporized=""/>
    <tripinfo id="v_39" depart="231.00" departLane="54i_0" departPos="5.10" departSpeed="0.00" departDelay="0.00" arrival="395.00" arrivalLane="53o_0" arrivalPos="10.00" arrivalSpeed="9.74" duration="164.00" routeLength="1014.90" waitingTime="53.00" waitingCount="2" stopTime="0.00" timeLoss="81.37" rerouteNo="0" devices="tripinfo_v_39" vType="type" speedFactor="0.90" vaporized=""/>
    <tripinfo id="v_46" depart="272.00" departLane="54i_0" departPos="5.10" departSpeed="0.00" departDelay="1.00" arrival="397.00" arrivalLane="53o_0" arrivalPos="10.00" arrivalSpeed="10.88" duration="125.00" routeLength="1014.90" waitingTime="19.00" waitingCount="1" stopTime="0.00" timeLoss="47.09" rerouteNo="0" devices="tripinfo_v_46" vType="type" speedFactor="1.00" vaporized=""/>
    <tripinfo id="v_45" depart="270.00" departLane="51i_0" departPos="5.10" departSpeed="0.00" departDelay="0.00" arrival="403.00" arrivalLane="54o_0" arrivalPos="10.00" arrivalSpeed="11.75" duration="133.00" routeLength="1014.90" waitingTime="36.00" waitingCount="1" stopTime="0.00" timeLoss="59.63" rerouteNo="0" devices="tripinfo_v_45" vType="type" speedFactor="1.09" vaporized=""/>
    <tripinfo id="v_49" depart="279.00" departLane="54i_0" departPos="5.10" departSpeed="0.00" departDelay="0.00" arrival="404.00" arrivalLane="52o_0" arrivalPos="10.00" arrivalSpeed="9.14" duration="125.00" routeLength="1015.10" waitingTime="14.00" waitingCount="1" stopTime="0.00" timeLoss="40.21" rerouteNo="0" devices="tripinfo_v_49" vType="type" speedFactor="0.85" vaporized=""/>
    <tripinfo id="v_47" depart="275.00" departLane="51i_0" departPos="5.10" departSpeed="0.00" departDelay="2.00" arrival="414.00" arrivalLane="53o_0" arrivalPos="10.00" arrivalSpeed="9.87" duration="139.00" routeLength="1015.10" waitingTime="32.00" waitingCount="1" stopTime="0.00" timeLoss="57.01" rerouteNo="0" devices="tripinfo_v_47" vType="type" speedFactor="0.90" vaporized=""/>
    <tripinfo id="v_50" depart="281.00" departLane="51i_0" departPos="5.10" departSpeed="0.00" departDelay="0.00" arrival="418.00" arrivalLane="53o_0" arrivalPos="10.00" arrivalSpeed="9.40" duration="137.00" routeLength="1015.10" waitingTime="27.00" waitingCount="1" stopTime="0.00" timeLoss="52.60" rerouteNo="0" devices="tripinfo_v_50" vType="type" speedFactor="0.85" vaporized=""/>
    <tripinfo id="v_53" depart="317.00" departLane="52i_0" departPos="5.10" departSpeed="0.00" departDelay="0.00" arrival="419.00" arrivalLane="54o_0" arrivalPos="10.00" arrivalSpeed="12.03" duration="102.00" routeLength="1015.10" waitingTime="3.00" waitingCount="1" stopTime="0.00" timeLoss="29.41" rerouteNo="0" devices="tripinfo_v_53" vType="type" speedFactor="1.10" vaporized=""/>
    <tripinfo id="v_55" depart="331.00" departLane="51i_0" departPos="5.10" departSpeed="0.00" departDelay="0.00" arrival="425.00" arrivalLane="54o_0" arrivalPos="10.00" arrivalSpeed="10.68" duration="94.00" routeLength="1014.90" waitingTime="0.00" waitingCount="0" stopTime="0.00" timeLoss="16.62" rerouteNo="0" devices="tripinfo_v_55" vType="type" speedFactor="1.00" vaporized=""/>
    <tripinfo id="v_60" depart="344.00" departLane="52i_0" departPos="5.10" departSpeed="0.00" departDelay="0.00" arrival="435.00" arrivalLane="54o_0" arrivalPos="10.00" arrivalSpeed="11.66" duration="91.00" routeLength="1015.10" waitingTime="0.00" waitingCount="0" stopTime="0.00" timeLoss="18.20" rerouteNo="0" devices="tripinfo_v_60" vType="type" speedFactor="1.08" vaporized=""/>
    <tripinfo id="v_54" depart="329.00" departLane="54i_0" departPos="5.10" departSpeed="0.00" departDelay="0.00" arrival="437.00" arrivalLane="51o_0" arrivalPos="10.00" arrivalSpeed="10.89" duration="108.00" routeLength="1009.73" waitingTime="6.00" waitingCount="1" stopTime="0.00" timeLoss="31.54" rerouteNo="0" devices="tripinfo_v_54" vType="type" speedFactor="1.00" vaporized=""/>
    <tripinfo id="v_61" depart="349.00" departLane="52i_0" departPos="5.10" departSpeed="0.00" departDelay="2.00" arrival="439.00" arrivalLane="53o_0" arrivalPos="10.00" arrivalSpeed="12.17" duration="90.00" routeLength="1009.73" waitingTime="0.00" waitingCount="0" stopTime="0.00" timeLoss="18.48" rerouteNo="0" devices="tripinfo_v_61" vType="type" speedFactor="1.12" vaporized=""/>
    <tripinfo id="v_56" depart="334.00" departLane="54i_0" departPos="5.10" departSpeed="0.00" departDelay="1.00" arrival="444.00" arrivalLane="51o_0" arrivalPos="10.00" arrivalSpeed="9.90" duration="110.00" routeLength="1009.73" waitingTime="3.00" waitingCount="1" stopTime="0.00" timeLoss="27.94" rerouteNo="0" devices="tripinfo_v_56" vType="type" speedFactor="0.90" vaporized=""/>
    <tripinfo id="v_57" depart="336.00" departLane="51i_0" departPos="5.10" departSpeed="0.00" departDelay="0.00" arrival="450.00" arrivalLane="53o_0" arrivalPos="10.00" arrivalSpeed="12.64" duration="114.00" routeLength="1015.10" waitingTime="16.00" waitingCount="1" stopTime="0.00" timeLoss="43.52" rerouteNo="0" devices="tripinfo_v_57" vType="type" speedFactor="1.14" vaporized=""/>
    <tripinfo id="v_58" depart="338.00" departLane="53i_0" departPos="5.10" departSpeed="0.00" departDelay="1.00" arrival="454.00" arrivalLane="51o_0" arrivalPos="10.00" arrivalSpeed="11.31" duration="116.00" routeLength="1015.10" waitingTime="15.00" waitingCount="1" stopTime="0.00" timeLoss="40.87" rerouteNo="0" devices="tripinfo_v_58" vType="type" speedFactor="1.02" vaporized=""/>
    <tripinfo id="v_59" depart="343.00" departLane="53i_0" departPos="5.10" departSpeed="0.00" departDelay="1.00" arrival="459.00" arrivalLane="52o_0" arrivalPos="10.00" arrivalSpeed="10.74" duration="116.00" routeLength="1014.90" waitingTime="12.00" waitingCount="1" stopTime="0.00" timeLoss="36.61" rerouteNo="0" devices="tripinfo_v_59" vType="type" speedFactor="0.97" vaporized=""/>
    <tripinfo id="v_62" depart="348.00" departLane="53i_0" departPos="5.10" departSpeed="0.00" departDelay="1.00" arrival="459.00" arrivalLane="54o_0" arrivalPos="10.00" arrivalSpeed="11.05" duration="111.00" routeLength="1009.73" waitingTime="9.00" waitingCount="1" stopTime="0.00" timeLoss="34.40" rerouteNo="0" devices="tripinfo_v_62" vType="type" speedFactor="1.02" vaporized=""/>
    <tripinfo id="v_63" depart="356.00" departLane="53i_0" departPos="5.10" departSpeed="0.00" departDelay="0.00" arrival="462.00" arrivalLane="54o_0" arrivalPos="10.00" arrivalSpeed="10.66" duration="106.00" routeLength="1009.73" waitingTime="2.00" waitingCount="1" stopTime="0.00" timeLoss="28.37" rerouteNo="0" devices="tripinfo_v_63" vType="type" speedFactor="0.99" vaporized=""/>
    <tripinfo id="v_65" depart="372.00" departLane="54i_0" departPos="5.10" departSpeed="0.00" departDelay="0.00" arrival="474.00" arrivalLane="52o_0" arrivalPos="10.00" arrivalSpeed="9.65" duration="102.00" routeLength="1015.10" waitingTime="0.00" waitingCount="0" stopTime="0.00" timeLoss="19.60" rerouteNo="0" devices="tripinfo_v_65" vType="type" speedFactor="0.88" vaporized=""/>
    <tripinfo id="v_64" depart="360.00" departLane="52i_0" departPos="5.10" departSpeed="0.00" departDelay="0.00" arrival="478.00" arrivalLane="51o_0" arrivalPos="10.00" arrivalSpeed="10.04" duration="118.00" routeLength="1014.90" waitingTime="12.00" waitingCount="1" stopTime="0.00" timeLoss="37.98" rerouteNo="0" devices="tripinfo_v_64" vType="type" speedFactor="0.94" vaporized=""/>
    <tripinfo id="v_66" depart="385.00" departLane="53i_0" departPos="5.10" departSpeed="0.00" departDelay="0.00" arrival="484.00" arrivalLane="51o_0" arrivalPos="10.00" arrivalSpeed="9.88" duration="99.00" routeLength="1015.10" waitingTime="0.00" waitingCount="0" stopTime="0.00" timeLoss="17.76" rerouteNo="0" devices="tripinfo_v_66" vType="type" speedFactor="0.91" vaporized=""/>
    <tripinfo id="v_67" depart="397.00" departLane="53i_0" departPos="5.10" departSpeed="0.00" departDelay="0.00" arrival="497.00" arrivalLane="54o_0" arrivalPos="10.00" arrivalSpeed="10.14" duration="100.00" routeLength="1009.73" waitingTime="0.00" waitingCount="0" stopTime="0.00" timeLoss="18.01" rerouteNo="0" devices="tripinfo_v_67" vType="type" speedFactor="0.91" vaporized=""/>
    <tripinfo id="v_68" depart="406.00" departLane="54i_0" departPos="5.10" departSpeed="0.00" departDelay="0.00" arrival="499.00" arrivalLane="51o_0" arrivalPos="10.00" arrivalSpeed="11.46" duration="93.00" routeLength="1009.73" waitingTime="0.00" waitingCount="0" stopTime="0.00" timeLoss="18.23" rerouteNo="0" devices="tripinfo_v_68" vType="type" speedFactor="1.04" vaporized=""/>
    <tripinfo id="v_69" depart="413.00" departLane="51i_0" departPos="5.10" departSpeed="0.00" departDelay="0.00" arrival="507.00" arrivalLane="53o_0" arrivalPos="10.00" arrivalSpeed="11.19" duration="94.00" routeLength="1015.10" waitingTime="0.00" waitingCount="0" stopTime="0.00" timeLoss="18.59" rerouteNo="0" devices="tripinfo_v_69" vType="type" speedFactor="1.02" vaporized=""/>
    <tripinfo id="v_70" depart="416.00" departLane="52i_0" departPos="5.10" departSpeed="0.00" departDelay="0.00" arrival="519.00" arrivalLane="54o_0" arrivalPos="10.00" arrivalSpeed="11.19" duration="103.00" routeLength="1015.10" waitingTime="3.00" waitingCount="1" stopTime="0.00" timeLoss="27.54" rerouteNo="0" devices="tripinfo_v_70" vType="type" speedFactor="1.02" vaporized=""/>
    <tripinfo id="v_71" depart="416.00" departLane="54i_0" departPos="5.10" departSpeed="0.00" departDelay="0.00" arrival="521.00" arrivalLane="52o_0" arrivalPos="10.00" arrivalSpeed="10.79" duration="105.00" routeLength="1015.10" waitingTime="1.00" waitingCount="1" stopTime="0.00" timeLoss="27.35" rerouteNo="0" devices="tripinfo_v_71" vType="type" speedFactor="0.97" vaporized=""/>
    <tripinfo id="v_72" depart="433.00" departLane="54i_0" departPos="5.10" departSpeed="0.00" departDelay="0.00" arrival="538.00" arrivalLane="52o_0" arrivalPos="10.00" arrivalSpeed="10.15" duration="105.00" routeLength="1015.10" waitingTime="0.00" waitingCount="0" stopTime="0.00" timeLoss="25.30" rerouteNo="0" devices="tripinfo_v_72" vType="type" speedFactor="0.94" vaporized=""/>
    <tripinfo id="v_73" depart="440.00" departLane="54i_0" departPos="5.10" departSpeed="0.00" departDelay="0.00" arrival="540.00" arrivalLane="52o_0" arrivalPos="10.00" arrivalSpeed="11.61" duration="100.00" routeLength="1015.10" waitingTime="0.00" waitingCount="0" stopTime="0.00" timeLoss="25.39" rerouteNo="0" devices="tripinfo_v_73" vType="type" speedFactor="1.06" vaporized=""/>
    <tripinfo id="v_74" depart="450.00" departLane="51i_0" departPos="5.10" departSpeed="0.00" departDelay="0.00" arrival="547.00" arrivalLane="53o_0" arrivalPos="10.00" arrivalSpeed="10.50" duration="97.00" routeLength="1015.10" waitingTime="0.00" waitingCount="0" stopTime="0.00" timeLoss="17.84" rerouteNo="0" devices="tripinfo_v_74" vType="type" speedFactor="0.96" vaporized=""/>