<?xml version="1.0" encoding="UTF-8"?>

<!-- generated on 2022-08-16 11:32:54 by Eclipse SUMO GUI Version 1.13.0
<configuration xmlns:xsi="http://www.w3.org/2001/XMLSchema-instance" xsi:noNamespaceSchemaLocation="http://sumo.dlr.de/xsd/sumoConfiguration.xsd">

    <input>
        <net-file value="data/cross.net.xml"/>
        <route-files value="data/cross.rou.xml"/>
        <additional-files value="data/cross.det.xml"/>
    </input>

    <output>
        <tripinfo-output value="tripinfo.xml"/>
    </output>

    <time>
        <begin value="0"/>
    </time>

    <report>
        <verbose value="true"/>
        <no-step-log value="true"/>
    </report>

    <traci_server>
        <remote-port value="61073"/>
    </traci_server>

</configuration>
-->

<detector xmlns:xsi="http://www.w3.org/2001/XMLSchema-instance" xsi:noNamespaceSchemaLocation="http://sumo.dlr.de/xsd/det_e2_file.xsd">
   <interval begin="0.00" end="40.00" id="1" sampledSeconds="0.00" nVehEntered="0" nVehLeft="0" nVehSeen="0" meanSpeed="-1.00" meanTimeLoss="-1.00" meanOccupancy="0.00" maxOccupancy="0.00" meanMaxJamLengthInVehicles="0.00" meanMaxJamLengthInMeters="0.00" maxJamLengthInVehicles="0" maxJamLengthInMeters="0.00" jamLengthInVehiclesSum="0" jamLengthInMetersSum="0.00" meanHaltingDuration="0.00" maxHaltingDuration="0.00" haltingDurationSum="0.00" meanIntervalHaltingDuration="0.00" maxIntervalHaltingDuration="0.00" intervalHaltingDurationSum="0.00" startedHalts="0.00" meanVehicleNumber="0.00" maxVehicleNumber="0" />
   <interval begin="0.00" end="40.00" id="2" sampledSeconds="0.00" nVehEntered="0" nVehLeft="0" nVehSeen="0" meanSpeed="-1.00" meanTimeLoss="-1.00" meanOccupancy="0.00" maxOccupancy="0.00" meanMaxJamLengthInVehicles="0.00" meanMaxJamLengthInMeters="0.00" maxJamLengthInVehicles="0" maxJamLengthInMeters="0.00" jamLengthInVehiclesSum="0" jamLengthInMetersSum="0.00" meanHaltingDuration="0.00" maxHaltingDuration="0.00" haltingDurationSum="0.00" meanIntervalHaltingDuration="0.00" maxIntervalHaltingDuration="0.00" intervalHaltingDurationSum="0.00" startedHalts="0.00" meanVehicleNumber="0.00" maxVehicleNumber="0" />
   <interval begin="0.00" end="40.00" id="3" sampledSeconds="0.00" nVehEntered="0" nVehLeft="0" nVehSeen="0" meanSpeed="-1.00" meanTimeLoss="-1.00" meanOccupancy="0.00" maxOccupancy="0.00" meanMaxJamLengthInVehicles="0.00" meanMaxJamLengthInMeters="0.00" maxJamLengthInVehicles="0" maxJamLengthInMeters="0.00" jamLengthInVehiclesSum="0" jamLengthInMetersSum="0.00" meanHaltingDuration="0.00" maxHaltingDuration="0.00" haltingDurationSum="0.00" meanIntervalHaltingDuration="0.00" maxIntervalHaltingDuration="0.00" intervalHaltingDurationSum="0.00" startedHalts="0.00" meanVehicleNumber="0.00" maxVehicleNumber="0" />
   <interval begin="0.00" end="40.00" id="4" sampledSeconds="0.00" nVehEntered="0" nVehLeft="0" nVehSeen="0" meanSpeed="-1.00" meanTimeLoss="-1.00" meanOccupancy="0.00" maxOccupancy="0.00" meanMaxJamLengthInVehicles="0.00" meanMaxJamLengthInMeters="0.00" maxJamLengthInVehicles="0" maxJamLengthInMeters="0.00" jamLengthInVehiclesSum="0" jamLengthInMetersSum="0.00" meanHaltingDuration="0.00" maxHaltingDuration="0.00" haltingDurationSum="0.00" meanIntervalHaltingDuration="0.00" maxIntervalHaltingDuration="0.00" intervalHaltingDurationSum="0.00" startedHalts="0.00" meanVehicleNumber="0.00" maxVehicleNumber="0" />
   <interval begin="40.00" end="45.00" id="1" sampledSeconds="0.00" nVehEntered="0" nVehLeft="0" nVehSeen="0" meanSpeed="-1.00" meanTimeLoss="-1.00" meanOccupancy="0.00" maxOccupancy="0.00" meanMaxJamLengthInVehicles="0.00" meanMaxJamLengthInMeters="0.00" maxJamLengthInVehicles="0" maxJamLengthInMeters="0.00" jamLengthInVehiclesSum="0" jamLengthInMetersSum="0.00" meanHaltingDuration="0.00" maxHaltingDuration="0.00" haltingDurationSum="0.00" meanIntervalHaltingDuration="0.00" maxIntervalHaltingDuration="0.00" intervalHaltingDurationSum="0.00" startedHalts="0.00" meanVehicleNumber="0.00" maxVehicleNumber="0" />
   <interval begin="40.00" end="45.00" id="2" sampledSeconds="1.69" nVehEntered="1" nVehLeft="0" nVehSeen="1" meanSpeed="16.30" meanTimeLoss="0.04" meanOccupancy="4.00" maxOccupancy="10.00" meanMaxJamLengthInVehicles="0.00" meanMaxJamLengthInMeters="0.00" maxJamLengthInVehicles="0" maxJamLengthInMeters="0.00" jamLengthInVehiclesSum="0" jamLengthInMetersSum="0.00" meanHaltingDuration="0.00" maxHaltingDuration="0.00" haltingDurationSum="0.00" meanIntervalHaltingDuration="0.00" maxIntervalHaltingDuration="0.00" intervalHaltingDurationSum="0.00" startedHalts="0.00" meanVehicleNumber="0.40" maxVehicleNumber="1" />
   <interval begin="40.00" end="45.00" id="3" sampledSeconds="0.00" nVehEntered="0" nVehLeft="0" nVehSeen="0" meanSpeed="-1.00" meanTimeLoss="-1.00" meanOccupancy="0.00" maxOccupancy="0.00" meanMaxJamLengthInVehicles="0.00" meanMaxJamLengthInMeters="0.00" maxJamLengthInVehicles="0" maxJamLengthInMeters="0.00" jamLengthInVehiclesSum="0" jamLengthInMetersSum="0.00" meanHaltingDuration="0.00" maxHaltingDuration="0.00" haltingDurationSum="0.00" meanIntervalHaltingDuration="0.00" maxIntervalHaltingDuration="0.00" intervalHaltingDurationSum="0.00" startedHalts="0.00" meanVehicleNumber="0.00" maxVehicleNumber="0" />
   <interval begin="40.00" end="45.00" id="4" sampledSeconds="0.00" nVehEntered="0" nVehLeft="0" nVehSeen="0" meanSpeed="-1.00" meanTimeLoss="-1.00" meanOccupancy="0.00" maxOccupancy="0.00" meanMaxJamLengthInVehicles="0.00" meanMaxJamLengthInMeters="0.00" maxJamLengthInVehicles="0" maxJamLengthInMeters="0.00" jamLengthInVehiclesSum="0" jamLengthInMetersSum="0.00" meanHaltingDuration="0.00" maxHaltingDuration="0.00" haltingDurationSum="0.00" meanIntervalHaltingDuration="0.00" maxIntervalHaltingDuration="0.00" intervalHaltingDurationSum="0.00" startedHalts="0.00" meanVehicleNumber="0.00" maxVehicleNumber="0" />
   <interval begin="45.00" end="85.00" id="1" sampledSeconds="0.00" nVehEntered="0" nVehLeft="0" nVehSeen="0" meanSpeed="-1.00" meanTimeLoss="-1.00" meanOccupancy="0.00" maxOccupancy="0.00" meanMaxJamLengthInVehicles="0.00" meanMaxJamLengthInMeters="0.00" maxJamLengthInVehicles="0" maxJamLengthInMeters="0.00" jamLengthInVehiclesSum="0" jamLengthInMetersSum="0.00" meanHaltingDuration="0.00" maxHaltingDuration="0.00" haltingDurationSum="0.00" meanIntervalHaltingDuration="0.00" maxIntervalHaltingDuration="0.00" intervalHaltingDurationSum="0.00" startedHalts="0.00" meanVehicleNumber="0.00" maxVehicleNumber="0" />
   <interval begin="45.00" end="85.00" id="2" sampledSeconds="12.84" nVehEntered="2" nVehLeft="3" nVehSeen="3" meanSpeed="10.71" meanTimeLoss="1.14" meanOccupancy="2.54" maxOccupancy="10.00" meanMaxJamLengthInVehicles="0.00" meanMaxJamLengthInMeters="0.00" maxJamLengthInVehicles="0" maxJamLengthInMeters="0.00" jamLengthInVehiclesSum="0" jamLengthInMetersSum="0.00" meanHaltingDuration="0.00" maxHaltingDuration="0.00" haltingDurationSum="0.00" meanIntervalHaltingDuration="0.00" maxIntervalHaltingDuration="0.00" intervalHaltingDurationSum="0.00" startedHalts="0.00" meanVehicleNumber="0.38" maxVehicleNumber="1" />
   <interval begin="45.00" end="85.00" id="3" sampledSeconds="14.64" nVehEntered="1" nVehLeft="0" nVehSeen="1" meanSpeed="3.40" meanTimeLoss="11.65" meanOccupancy="3.75" maxOccupancy="10.00" meanMaxJamLengthInVehicles="0.23" meanMaxJamLengthInMeters="1.12" maxJamLengthInVehicles="1" maxJamLengthInMeters="5.00" jamLengthInVehiclesSum="9" jamLengthInMetersSum="45.00" meanHaltingDuration="10.00" maxHaltingDuration="10.00" haltingDurationSum="10.00" meanIntervalHaltingDuration="10.00" maxIntervalHaltingDuration="10.00" intervalHaltingDurationSum="10.00" startedHalts="1.00" meanVehicleNumber="0.38" maxVehicleNumber="1" />
   <interval begin="45.00" end="85.00" id="4" sampledSeconds="36.11" nVehEntered="1" nVehLeft="0" nVehSeen="1" meanSpeed="1.38" meanTimeLoss="33.12" meanOccupancy="9.09" maxOccupancy="10.00" meanMaxJamLengthInVehicles="0.78" meanMaxJamLengthInMeters="3.88" maxJamLengthInVehicles="1" maxJamLengthInMeters="5.00" jamLengthInVehiclesSum="31" jamLengthInMetersSum="155.00" meanHaltingDuration="32.00" maxHaltingDuration="32.00" haltingDurationSum="32.00" meanIntervalHaltingDuration="32.00" maxIntervalHaltingDuration="32.00" intervalHaltingDurationSum="32.00" startedHalts="1.00" meanVehicleNumber="0.93" maxVehicleNumber="1" />
   <interval begin="85.00" end="90.00" id="1" sampledSeconds="0.00" nVehEntered="0" nVehLeft="0" nVehSeen="0" meanSpeed="-1.00" meanTimeLoss="-1.00" meanOccupancy="0.00" maxOccupancy="0.00" meanMaxJamLengthInVehicles="0.00" meanMaxJamLengthInMeters="0.00" maxJamLengthInVehicles="0" maxJamLengthInMeters="0.00" jamLengthInVehiclesSum="0" jamLengthInMetersSum="0.00" meanHaltingDuration="0.00" maxHaltingDuration="0.00" haltingDurationSum="0.00" meanIntervalHaltingDuration="0.00" maxIntervalHaltingDuration="0.00" intervalHaltingDurationSum="0.00" startedHalts="0.00" meanVehicleNumber="0.00" maxVehicleNumber="0" />
   <interval begin="85.00" end="90.00" id="2" sampledSeconds="0.00" nVehEntered="0" nVehLeft="0" nVehSeen="0" meanSpeed="-1.00" meanTimeLoss="-1.00" meanOccupancy="0.00" maxOccupancy="0.00" meanMaxJamLengthInVehicles="0.00" meanMaxJamLengthInMeters="0.00" maxJamLengthInVehicles="0" maxJamLengthInMeters="0.00" jamLengthInVehiclesSum="0" jamLengthInMetersSum="0.00" meanHaltingDuration="0.00" maxHaltingDuration="0.00" haltingDurationSum="0.00" meanIntervalHaltingDuration="0.00" maxIntervalHaltingDuration="0.00" intervalHaltingDurationSum="0.00" startedHalts="0.00" meanVehicleNumber="0.00" maxVehicleNumber="0" />
   <interval begin="85.00" end="90.00" id="3" sampledSeconds="5.00" nVehEntered="0" nVehLeft="0" nVehSeen="1" meanSpeed="0.00" meanTimeLoss="5.00" meanOccupancy="10.00" maxOccupancy="10.00" meanMaxJamLengthInVehicles="1.00" meanMaxJamLengthInMeters="5.00" maxJamLengthInVehicles="1" maxJamLengthInMeters="5.00" jamLengthInVehiclesSum="5" jamLengthInMetersSum="25.00" meanHaltingDuration="15.00" maxHaltingDuration="15.00" haltingDurationSum="15.00" meanIntervalHaltingDuration="5.00" maxIntervalHaltingDuration="5.00" intervalHaltingDurationSum="5.00" startedHalts="0.00" meanVehicleNumber="1.00" maxVehicleNumber="1" />
   <interval begin="85.00" end="90.00" id="4" sampledSeconds="5.00" nVehEntered="0" nVehLeft="0" nVehSeen="1" meanSpeed="0.00" meanTimeLoss="5.00" meanOccupancy="10.00" maxOccupancy="10.00" meanMaxJamLengthInVehicles="1.00" meanMaxJamLengthInMeters="5.00" maxJamLengthInVehicles="1" maxJamLengthInMeters="5.00" jamLengthInVehiclesSum="5" jamLengthInMetersSum="25.00" meanHaltingDuration="37.00" maxHaltingDuration="37.00" haltingDurationSum="37.00" meanIntervalHaltingDuration="5.00" maxIntervalHaltingDuration="5.00" intervalHaltingDurationSum="5.00" startedHalts="0.00" meanVehicleNumber="1.00" maxVehicleNumber="1" />
   <interval begin="90.00" end="130.00" id="1" sampledSeconds="60.01" nVehEntered="2" nVehLeft="0" nVehSeen="2" meanSpeed="1.53" meanTimeLoss="27.19" meanOccupancy="15.25" maxOccupancy="20.00" meanMaxJamLengthInVehicles="1.23" meanMaxJamLengthInMeters="7.25" maxJamLengthInVehicles="2" maxJamLengthInMeters="12.50" jamLengthInVehiclesSum="49" jamLengthInMetersSum="290.02" meanHaltingDuration="25.50" maxHaltingDuration="32.00" haltingDurationSum="51.00" meanIntervalHaltingDuration="25.50" maxIntervalHaltingDuration="32.00" intervalHaltingDurationSum="51.00" startedHalts="2.00" meanVehicleNumber="1.52" maxVehicleNumber="2" />
   <interval begin="90.00" end="130.00" id="2" sampledSeconds="24.74" nVehEntered="1" nVehLeft="0" nVehSeen="1" meanSpeed="2.01" meanTimeLoss="21.76" meanOccupancy="6.25" maxOccupancy="10.00" meanMaxJamLengthInVehicles="0.47" meanMaxJamLengthInMeters="2.38" maxJamLengthInVehicles="1" maxJamLengthInMeters="5.00" jamLengthInVehiclesSum="19" jamLengthInMetersSum="95.00" meanHaltingDuration="20.00" maxHaltingDuration="20.00" haltingDurationSum="20.00" meanIntervalHaltingDuration="20.00" maxIntervalHaltingDuration="20.00" intervalHaltingDurationSum="20.00" startedHalts="1.00" meanVehicleNumber="0.62" maxVehicleNumber="1" />
   <interval begin="90.00" end="130.00" id="3" sampledSeconds="3.45" nVehEntered="0" nVehLeft="1" nVehSeen="1" meanSpeed="1.51" meanTimeLoss="3.13" meanOccupancy="0.44" maxOccupancy="8.80" meanMaxJamLengthInVehicles="0.05" meanMaxJamLengthInMeters="0.19" maxJamLengthInVehicles="1" maxJamLengthInMeters="4.40" jamLengthInVehiclesSum="2" jamLengthInMetersSum="7.58" meanHaltingDuration="17.00" maxHaltingDuration="17.00" haltingDurationSum="17.00" meanIntervalHaltingDuration="2.00" maxIntervalHaltingDuration="2.00" intervalHaltingDurationSum="2.00" startedHalts="0.00" meanVehicleNumber="0.10" maxVehicleNumber="1" />
   <interval begin="90.00" end="130.00" id="4" sampledSeconds="46.07" nVehEntered="1" nVehLeft="0" nVehSeen="2" meanSpeed="0.92" meanTimeLoss="21.77" meanOccupancy="11.56" maxOccupancy="20.00" meanMaxJamLengthInVehicles="1.02" meanMaxJamLengthInMeters="5.19" maxJamLengthInVehicles="2" maxJamLengthInMeters="12.50" jamLengthInVehiclesSum="41" jamLengthInMetersSum="207.50" meanHaltingDuration="39.50" maxHaltingDuration="77.00" haltingDurationSum="79.00" meanIntervalHaltingDuration="21.00" maxIntervalHaltingDuration="40.00" intervalHaltingDurationSum="42.00" startedHalts="1.00" meanVehicleNumber="1.18" maxVehicleNumber="2" />
   <interval begin="130.00" end="135.00" id="1" sampledSeconds="10.00" nVehEntered="0" nVehLeft="0" nVehSeen="2" meanSpeed="0.00" meanTimeLoss="5.00" meanOccupancy="20.00" maxOccupancy="20.00" meanMaxJamLengthInVehicles="2.00" meanMaxJamLengthInMeters="12.50" maxJamLengthInVehicles="2" maxJamLengthInMeters="12.50" jamLengthInVehiclesSum="10" jamLengthInMetersSum="62.51" meanHaltingDuration="30.50" maxHaltingDuration="37.00" haltingDurationSum="61.00" meanIntervalHaltingDuration="5.00" maxIntervalHaltingDuration="5.00" intervalHaltingDurationSum="10.00" startedHalts="0.00" meanVehicleNumber="2.00" maxVehicleNumber="2" />
   <interval begin="130.00" end="135.00" id="2" sampledSeconds="5.00" nVehEntered="0" nVehLeft="0" nVehSeen="1" meanSpeed="0.00" meanTimeLoss="5.00" meanOccupancy="10.00" maxOccupancy="10.00" meanMaxJamLengthInVehicles="1.00" meanMaxJamLengthInMeters="5.00" maxJamLengthInVehicles="1" maxJamLengthInMeters="5.00" jamLengthInVehiclesSum="5" jamLengthInMetersSum="25.00" meanHaltingDuration="25.00" maxHaltingDuration="25.00" haltingDurationSum="25.00" meanIntervalHaltingDuration="5.00" maxIntervalHaltingDuration="5.00" intervalHaltingDurationSum="5.00" startedHalts="0.00" meanVehicleNumber="1.00" maxVehicleNumber="1" />
   <interval begin="130.00" end="135.00" id="3" sampledSeconds="0.00" nVehEntered="0" nVehLeft="0" nVehSeen="0" meanSpeed="-1.00" meanTimeLoss="-1.00" meanOccupancy="0.00" maxOccupancy="0.00" meanMaxJamLengthInVehicles="0.00" meanMaxJamLengthInMeters="0.00" maxJamLengthInVehicles="0" maxJamLengthInMeters="0.00" jamLengthInVehiclesSum="0" jamLengthInMetersSum="0.00" meanHaltingDuration="0.00" maxHaltingDuration="0.00" haltingDurationSum="0.00" meanIntervalHaltingDuration="0.00" maxIntervalHaltingDuration="0.00" intervalHaltingDurationSum="0.00" startedHalts="0.00" meanVehicleNumber="0.00" maxVehicleNumber="0" />
   <interval begin="130.00" end="135.00" id="4" sampledSeconds="10.00" nVehEntered="0" nVehLeft="0" nVehSeen="2" meanSpeed="0.00" meanTimeLoss="5.00" meanOccupancy="20.00" maxOccupancy="20.00" meanMaxJamLengthInVehicles="2.00" meanMaxJamLengthInMeters="12.50" maxJamLengthInVehicles="2" maxJamLengthInMeters="12.50" jamLengthInVehiclesSum="10" jamLengthInMetersSum="62.51" meanHaltingDuration="44.50" maxHaltingDuration="82.00" haltingDurationSum="89.00" meanIntervalHaltingDuration="5.00" maxIntervalHaltingDuration="5.00" intervalHaltingDurationSum="10.00" startedHalts="0.00" meanVehicleNumber="2.00" maxVehicleNumber="2" />
   <interval begin="135.00" end="175.00" id="1" sampledSeconds="20.09" nVehEntered="2" nVehLeft="4" nVehSeen="4" meanSpeed="6.37" meanTimeLoss="2.62" meanOccupancy="4.00" maxOccupancy="18.80" meanMaxJamLengthInVehicles="0.12" meanMaxJamLengthInMeters="0.74" maxJamLengthInVehicles="2" maxJamLengthInMeters="12.70" jamLengthInVehiclesSum="5" jamLengthInMetersSum="29.77" meanHaltingDuration="33.00" maxHaltingDuration="39.00" haltingDurationSum="66.00" meanIntervalHaltingDuration="2.50" maxIntervalHaltingDuration="3.00" intervalHaltingDurationSum="5.00" startedHalts="0.00" meanVehicleNumber="0.60" maxVehicleNumber="2" />
   <interval begin="135.00" end="175.00" id="2" sampledSeconds="12.95" nVehEntered="1" nVehLeft="2" nVehSeen="2" meanSpeed="4.65" meanTimeLoss="4.25" meanOccupancy="1.50" maxOccupancy="10.00" meanMaxJamLengthInVehicles="0.17" meanMaxJamLengthInMeters="0.22" maxJamLengthInVehicles="1" maxJamLengthInMeters="4.60" jamLengthInVehiclesSum="7" jamLengthInMetersSum="8.85" meanHaltingDuration="27.00" maxHaltingDuration="27.00" haltingDurationSum="27.00" meanIntervalHaltingDuration="2.00" maxIntervalHaltingDuration="2.00" intervalHaltingDurationSum="2.00" startedHalts="1.00" meanVehicleNumber="0.38" maxVehicleNumber="1" />
   <interval begin="135.00" end="175.00" id="3" sampledSeconds="4.44" nVehEntered="1" nVehLeft="0" nVehSeen="1" meanSpeed="11.12" meanTimeLoss="1.48" meanOccupancy="1.25" maxOccupancy="10.00" meanMaxJamLengthInVehicles="0.00" meanMaxJamLengthInMeters="0.00" maxJamLengthInVehicles="0" maxJamLengthInMeters="0.00" jamLengthInVehiclesSum="0" jamLengthInMetersSum="0.00" meanHaltingDuration="0.00" maxHaltingDuration="0.00" haltingDurationSum="0.00" meanIntervalHaltingDuration="0.00" maxIntervalHaltingDuration="0.00" intervalHaltingDurationSum="0.00" startedHalts="0.00" meanVehicleNumber="0.12" maxVehicleNumber="1" />
   <interval begin="135.00" end="175.00" id="4" sampledSeconds="80.00" nVehEntered="0" nVehLeft="0" nVehSeen="2" meanSpeed="0.00" meanTimeLoss="40.00" meanOccupancy="20.00" maxOccupancy="20.00" meanMaxJamLengthInVehicles="2.00" meanMaxJamLengthInMeters="12.50" maxJamLengthInVehicles="2" maxJamLengthInMeters="12.50" jamLengthInVehiclesSum="80" jamLengthInMetersSum="500.04" meanHaltingDuration="84.50" maxHaltingDuration="122.00" haltingDurationSum="169.00" meanIntervalHaltingDuration="40.00" maxIntervalHaltingDuration="40.00" intervalHaltingDurationSum="80.00" startedHalts="0.00" meanVehicleNumber="2.00" maxVehicleNumber="2" />
   <interval begin="175.00" end="180.00" id="1" sampledSeconds="0.00" nVehEntered="0" nVehLeft="0" nVehSeen="0" meanSpeed="-1.00" meanTimeLoss="-1.00" meanOccupancy="0.00" maxOccupancy="0.00" meanMaxJamLengthInVehicles="0.00" meanMaxJamLengthInMeters="0.00" maxJamLengthInVehicles="0" maxJamLengthInMeters="0.00" jamLengthInVehiclesSum="0" jamLengthInMetersSum="0.00" meanHaltingDuration="0.00" maxHaltingDuration="0.00" haltingDurationSum="0.00" meanIntervalHaltingDuration="0.00" maxIntervalHaltingDuration="0.00" intervalHaltingDurationSum="0.00" startedHalts="0.00" meanVehicleNumber="0.00" maxVehicleNumber="0" />
   <interval begin="175.00" end="180.00" id="2" sampledSeconds="0.00" nVehEntered="0" nVehLeft="0" nVehSeen="0" meanSpeed="-1.00" meanTimeLoss="-1.00" meanOccupancy="0.00" maxOccupancy="0.00" meanMaxJamLengthInVehicles="0.00" meanMaxJamLengthInMeters="0.00" maxJamLengthInVehicles="0" maxJamLengthInMeters="0.00" jamLengthInVehiclesSum="0" jamLengthInMetersSum="0.00" meanHaltingDuration="0.00" maxHaltingDuration="0.00" haltingDurationSum="0.00" meanIntervalHaltingDuration="0.00" maxIntervalHaltingDuration="0.00" intervalHaltingDurationSum="0.00" startedHalts="0.00" meanVehicleNumber="0.00" maxVehicleNumber="0" />
   <interval begin="175.00" end="180.00" id="3" sampledSeconds="5.00" nVehEntered="0" nVehLeft="0" nVehSeen="1" meanSpeed="0.08" meanTimeLoss="4.98" meanOccupancy="10.00" maxOccupancy="10.00" meanMaxJamLengthInVehicles="0.80" meanMaxJamLengthInMeters="4.00" maxJamLengthInVehicles="1" maxJamLengthInMeters="5.00" jamLengthInVehiclesSum="4" jamLengthInMetersSum="20.00" meanHaltingDuration="5.00" maxHaltingDuration="5.00" haltingDurationSum="5.00" meanIntervalHaltingDuration="5.00" maxIntervalHaltingDuration="5.00" intervalHaltingDurationSum="5.00" startedHalts="1.00" meanVehicleNumber="1.00" maxVehicleNumber="1" />
   <interval begin="175.00" end="180.00" id="4" sampledSeconds="10.00" nVehEntered="0" nVehLeft="0" nVehSeen="2" meanSpeed="0.00" meanTimeLoss="5.00" meanOccupancy="20.00" maxOccupancy="20.00" meanMaxJamLengthInVehicles="2.00" meanMaxJamLengthInMeters="12.50" maxJamLengthInVehicles="2" maxJamLengthInMeters="12.50" jamLengthInVehiclesSum="10" jamLengthInMetersSum="62.51" meanHaltingDuration="89.50" maxHaltingDuration="127.00" haltingDurationSum="179.00" meanIntervalHaltingDuration="5.00" maxIntervalHaltingDuration="5.00" intervalHaltingDurationSum="10.00" startedHalts="0.00" meanVehicleNumber="2.00" maxVehicleNumber="2" />
   <interval begin="180.00" end="220.00" id="1" sampledSeconds="37.48" nVehEntered="2" nVehLeft="0" nVehSeen="2" meanSpeed="2.46" meanTimeLoss="15.98" meanOccupancy="9.64" maxOccupancy="20.00" meanMaxJamLengthInVehicles="0.68" meanMaxJamLengthInMeters="3.81" maxJamLengthInVehicles="2" maxJamLengthInMeters="12.50" jamLengthInVehiclesSum="27" jamLengthInMetersSum="152.51" meanHaltingDuration="14.50" maxHaltingDuration="21.00" haltingDurationSum="29.00" meanIntervalHaltingDuration="14.50" maxIntervalHaltingDuration="21.00" intervalHaltingDurationSum="29.00" startedHalts="2.00" meanVehicleNumber="0.97" maxVehicleNumber="2" />
   <interval begin="180.00" end="220.00" id="2" sampledSeconds="22.23" nVehEntered="1" nVehLeft="0" nVehSeen="1" meanSpeed="2.24" meanTimeLoss="19.25" meanOccupancy="5.69" maxOccupancy="10.00" meanMaxJamLengthInVehicles="0.42" meanMaxJamLengthInMeters="2.12" maxJamLengthInVehicles="1" maxJamLengthInMeters="5.00" jamLengthInVehiclesSum="17" jamLengthInMetersSum="85.00" meanHaltingDuration="18.00" maxHaltingDuration="18.00" haltingDurationSum="18.00" meanIntervalHaltingDuration="18.00" maxIntervalHaltingDuration="18.00" intervalHaltingDurationSum="18.00" startedHalts="1.00" meanVehicleNumber="0.57" maxVehicleNumber="1" />
   <interval begin="180.00" end="220.00" id="3" sampledSeconds="8.57" nVehEntered="1" nVehLeft="2" nVehSeen="2" meanSpeed="7.03" meanTimeLoss="1.91" meanOccupancy="1.60" maxOccupancy="10.00" meanMaxJamLengthInVehicles="0.05" meanMaxJamLengthInMeters="0.21" maxJamLengthInVehicles="1" maxJamLengthInMeters="4.75" jamLengthInVehiclesSum="2" jamLengthInMetersSum="8.29" meanHaltingDuration="7.00" maxHaltingDuration="7.00" haltingDurationSum="7.00" meanIntervalHaltingDuration="2.00" maxIntervalHaltingDuration="2.00" intervalHaltingDurationSum="2.00" startedHalts="0.00" meanVehicleNumber="0.25" maxVehicleNumber="1" />
   <interval begin="180.00" end="220.00" id="4" sampledSeconds="106.92" nVehEntered="1" nVehLeft="0" nVehSeen="3" meanSpeed="0.33" meanTimeLoss="34.94" meanOccupancy="26.75" maxOccupancy="30.00" meanMaxJamLengthInVehicles="2.55" meanMaxJamLengthInMeters="16.63" maxJamLengthInVehicles="3" maxJamLengthInMeters="20.00" jamLengthInVehiclesSum="102" jamLengthInMetersSum="665.07" meanHaltingDuration="94.00" maxHaltingDuration="167.00" haltingDurationSum="282.00" meanIntervalHaltingDuration="34.33" maxIntervalHaltingDuration="40.00" intervalHaltingDurationSum="103.00" startedHalts="1.00" meanVehicleNumber="2.67" maxVehicleNumber="3" />
   <interval begin="220.00" end="225.00" id="1" sampledSeconds="10.00" nVehEntered="0" nVehLeft="0" nVehSeen="2" meanSpeed="0.00" meanTimeLoss="5.00" meanOccupancy="20.00" maxOccupancy="20.00" meanMaxJamLengthInVehicles="2.00" meanMaxJamLengthInMeters="12.50" maxJamLengthInVehicles="2" maxJamLengthInMeters="12.50" jamLengthInVehiclesSum="10" jamLengthInMetersSum="62.51" meanHaltingDuration="19.50" maxHaltingDuration="26.00" haltingDurationSum="39.00" meanIntervalHaltingDuration="5.00" maxIntervalHaltingDuration="5.00" intervalHaltingDurationSum="10.00" startedHalts="0.00" meanVehicleNumber="2.00" maxVehicleNumber="2" />
   <interval begin="220.00" end="225.00" id="2" sampledSeconds="5.00" nVehEntered="0" nVehLeft="0" nVehSeen="1" meanSpeed="0.00" meanTimeLoss="5.00" meanOccupancy="10.00" maxOccupancy="10.00" meanMaxJamLengthInVehicles="1.00" meanMaxJamLengthInMeters="5.00" maxJamLengthInVehicles="1" maxJamLengthInMeters="5.00" jamLengthInVehiclesSum="5" jamLengthInMetersSum="25.00" meanHaltingDuration="23.00" maxHaltingDuration="23.00" haltingDurationSum="23.00" meanIntervalHaltingDuration="5.00" maxIntervalHaltingDuration="5.00" intervalHaltingDurationSum="5.00" startedHalts="0.00" meanVehicleNumber="1.00" maxVehicleNumber="1" />
   <interval begin="220.00" end="225.00" id="3" sampledSeconds="0.91" nVehEntered="1" nVehLeft="0" nVehSeen="1" meanSpeed="16.28" meanTimeLoss="0.02" meanOccupancy="2.00" maxOccupancy="10.00" meanMaxJamLengthInVehicles="0.00" meanMaxJamLengthInMeters="0.00" maxJamLengthInVehicles="0" maxJamLengthInMeters="0.00" jamLengthInVehiclesSum="0" jamLengthInMetersSum="0.00" meanHaltingDuration="0.00" maxHaltingDuration="0.00" haltingDurationSum="0.00" meanIntervalHaltingDuration="0.00" maxIntervalHaltingDuration="0.00" intervalHaltingDurationSum="0.00" startedHalts="0.00" meanVehicleNumber="0.20" maxVehicleNumber="1" />
   <interval begin="220.00" end="225.00" id="4" sampledSeconds="15.00" nVehEntered="0" nVehLeft="0" nVehSeen="3" meanSpeed="0.00" meanTimeLoss="5.00" meanOccupancy="30.00" maxOccupancy="30.00" meanMaxJamLengthInVehicles="3.00" meanMaxJamLengthInMeters="20.00" maxJamLengthInVehicles="3" maxJamLengthInMeters="20.00" jamLengthInVehiclesSum="15" jamLengthInMetersSum="100.01" meanHaltingDuration="99.00" maxHaltingDuration="172.00" haltingDurationSum="297.00" meanIntervalHaltingDuration="5.00" maxIntervalHaltingDuration="5.00" intervalHaltingDurationSum="15.00" startedHalts="0.00" meanVehicleNumber="3.00" maxVehicleNumber="3" />
   <interval begin="225.00" end="265.00" id="1" sampledSeconds="24.13" nVehEntered="2" nVehLeft="4" nVehSeen="4" meanSpeed="5.30" meanTimeLoss="3.98" meanOccupancy="5.03" maxOccupancy="26.00" meanMaxJamLengthInVehicles="0.10" meanMaxJamLengthInMeters="0.57" maxJamLengthInVehicles="2" maxJamLengthInMeters="12.70" jamLengthInVehiclesSum="4" jamLengthInMetersSum="22.70" meanHaltingDuration="21.50" maxHaltingDuration="27.00" haltingDurationSum="43.00" meanIntervalHaltingDuration="2.00" maxIntervalHaltingDuration="3.00" intervalHaltingDurationSum="4.00" startedHalts="0.00" meanVehicleNumber="0.68" maxVehicleNumber="3" />
   <interval begin="225.00" end="265.00" id="2" sampledSeconds="3.16" nVehEntered="0" nVehLeft="1" nVehSeen="1" meanSpeed="1.64" meanTimeLoss="2.39" meanOccupancy="0.39" maxOccupancy="8.80" meanMaxJamLengthInVehicles="0.03" meanMaxJamLengthInMeters="0.11" maxJamLengthInVehicles="1" maxJamLengthInMeters="4.40" jamLengthInVehiclesSum="1" jamLengthInMetersSum="4.40" meanHaltingDuration="24.00" maxHaltingDuration="24.00" haltingDurationSum="24.00" meanIntervalHaltingDuration="1.00" maxIntervalHaltingDuration="1.00" intervalHaltingDurationSum="1.00" startedHalts="0.00" meanVehicleNumber="0.10" maxVehicleNumber="1" />
   <interval begin="225.00" end="265.00" id="3" sampledSeconds="104.90" nVehEntered="3" nVehLeft="0" nVehSeen="4" meanSpeed="1.33" meanTimeLoss="24.14" meanOccupancy="26.50" maxOccupancy="40.00" meanMaxJamLengthInVehicles="2.15" meanMaxJamLengthInMeters="13.94" maxJamLengthInVehicles="4" maxJamLengthInMeters="27.50" jamLengthInVehiclesSum="86" jamLengthInMetersSum="557.66" meanHaltingDuration="22.50" maxHaltingDuration="36.00" haltingDurationSum="90.00" meanIntervalHaltingDuration="22.50" maxIntervalHaltingDuration="36.00" intervalHaltingDurationSum="90.00" startedHalts="4.00" meanVehicleNumber="2.65" maxVehicleNumber="4" />
   <interval begin="225.00" end="265.00" id="4" sampledSeconds="130.67" nVehEntered="2" nVehLeft="0" nVehSeen="5" meanSpeed="0.36" meanTimeLoss="25.56" meanOccupancy="32.85" maxOccupancy="50.00" meanMaxJamLengthInVehicles="3.08" meanMaxJamLengthInMeters="20.56" maxJamLengthInVehicles="4" maxJamLengthInMeters="27.50" jamLengthInVehiclesSum="123" jamLengthInMetersSum="822.59" meanHaltingDuration="105.25" maxHaltingDuration="212.00" haltingDurationSum="421.00" meanIntervalHaltingDuration="31.00" maxIntervalHaltingDuration="40.00" intervalHaltingDurationSum="124.00" startedHalts="1.00" meanVehicleNumber="3.30" maxVehicleNumber="5" />
   <interval begin="265.00" end="270.00" id="1" sampledSeconds="0.00" nVehEntered="0" nVehLeft="0" nVehSeen="0" meanSpeed="-1.00" meanTimeLoss="-1.00" meanOccupancy="0.00" maxOccupancy="0.00" meanMaxJamLengthInVehicles="0.00" meanMaxJamLengthInMeters="0.00" maxJamLengthInVehicles="0" maxJamLengthInMeters="0.00" jamLengthInVehiclesSum="0" jamLengthInMetersSum="0.00" meanHaltingDuration="0.00" maxHaltingDuration="0.00" haltingDurationSum="0.00" meanIntervalHaltingDuration="0.00" maxIntervalHaltingDuration="0.00" intervalHaltingDurationSum="0.00" startedHalts="0.00" meanVehicleNumber="0.00" maxVehicleNumber="0" />
   <interval begin="265.00" end="270.00" id="2" sampledSeconds="0.00" nVehEntered="0" nVehLeft="0" nVehSeen="0" meanSpeed="-1.00" meanTimeLoss="-1.00" meanOccupancy="0.00" maxOccupancy="0.00" meanMaxJamLengthInVehicles="0.00" meanMaxJamLengthInMeters="0.00" maxJamLengthInVehicles="0" maxJamLengthInMeters="0.00" jamLengthInVehiclesSum="0" jamLengthInMetersSum="0.00" meanHaltingDuration="0.00" maxHaltingDuration="0.00" haltingDurationSum="0.00" meanIntervalHaltingDuration="0.00" maxIntervalHaltingDuration="0.00" intervalHaltingDurationSum="0.00" startedHalts="0.00" meanVehicleNumber="0.00" maxVehicleNumber="0" />