<?xml version="1.0" encoding="UTF-8"?>

<!-- generated on 2022-08-16 17:15:22 by Eclipse SUMO GUI Version 1.13.0
<configuration xmlns:xsi="http://www.w3.org/2001/XMLSchema-instance" xsi:noNamespaceSchemaLocation="http://sumo.dlr.de/xsd/sumoConfiguration.xsd">

    <input>
        <net-file value="data/cross.net.xml"/>
        <route-files value="data/cross.rou.xml"/>
        <additional-files value="data/cross.det.xml"/>
    </input>

    <output>
        <tripinfo-output value="tripinfo.xml"/>
    </output>

    <time>
        <begin value="0"/>
    </time>

    <report>
        <verbose value="true"/>
        <no-step-log value="true"/>
    </report>

    <traci_server>
        <remote-port value="53401"/>
    </traci_server>

</configuration>
-->

<detector xmlns:xsi="http://www.w3.org/2001/XMLSchema-instance" xsi:noNamespaceSchemaLocation="http://sumo.dlr.de/xsd/det_e2_file.xsd">
   <interval begin="0.00" end="91.00" id="1" sampledSeconds="3.96" nVehEntered="1" nVehLeft="0" nVehSeen="1" meanSpeed="12.09" meanTimeLoss="1.09" meanOccupancy="0.44" maxOccupancy="10.00" meanMaxJamLengthInVehicles="0.00" meanMaxJamLengthInMeters="0.00" maxJamLengthInVehicles="0" maxJamLengthInMeters="0.00" jamLengthInVehiclesSum="0" jamLengthInMetersSum="0.00" meanHaltingDuration="0.00" maxHaltingDuration="0.00" haltingDurationSum="0.00" meanIntervalHaltingDuration="0.00" maxIntervalHaltingDuration="0.00" intervalHaltingDurationSum="0.00" startedHalts="0.00" meanVehicleNumber="0.04" maxVehicleNumber="1" />
   <interval begin="0.00" end="91.00" id="2" sampledSeconds="27.65" nVehEntered="6" nVehLeft="5" nVehSeen="6" meanSpeed="11.39" meanTimeLoss="1.02" meanOccupancy="2.71" maxOccupancy="13.59" meanMaxJamLengthInVehicles="0.00" meanMaxJamLengthInMeters="0.00" maxJamLengthInVehicles="0" maxJamLengthInMeters="0.00" jamLengthInVehiclesSum="0" jamLengthInMetersSum="0.00" meanHaltingDuration="0.00" maxHaltingDuration="0.00" haltingDurationSum="0.00" meanIntervalHaltingDuration="0.00" maxIntervalHaltingDuration="0.00" intervalHaltingDurationSum="0.00" startedHalts="0.00" meanVehicleNumber="0.36" maxVehicleNumber="2" />
   <interval begin="0.00" end="91.00" id="3" sampledSeconds="142.77" nVehEntered="5" nVehLeft="0" nVehSeen="5" meanSpeed="1.15" meanTimeLoss="26.59" meanOccupancy="15.85" maxOccupancy="50.00" meanMaxJamLengthInVehicles="1.34" meanMaxJamLengthInMeters="9.01" maxJamLengthInVehicles="4" maxJamLengthInMeters="27.51" jamLengthInVehiclesSum="122" jamLengthInMetersSum="820.14" meanHaltingDuration="31.50" maxHaltingDuration="39.00" haltingDurationSum="126.00" meanIntervalHaltingDuration="31.50" maxIntervalHaltingDuration="39.00" intervalHaltingDurationSum="126.00" startedHalts="4.00" meanVehicleNumber="1.59" maxVehicleNumber="5" />
   <interval begin="0.00" end="91.00" id="4" sampledSeconds="15.31" nVehEntered="3" nVehLeft="3" nVehSeen="3" meanSpeed="10.78" meanTimeLoss="1.23" meanOccupancy="1.47" maxOccupancy="10.00" meanMaxJamLengthInVehicles="0.00" meanMaxJamLengthInMeters="0.00" maxJamLengthInVehicles="0" maxJamLengthInMeters="0.00" jamLengthInVehiclesSum="0" jamLengthInMetersSum="0.00" meanHaltingDuration="0.00" maxHaltingDuration="0.00" haltingDurationSum="0.00" meanIntervalHaltingDuration="0.00" maxIntervalHaltingDuration="0.00" intervalHaltingDurationSum="0.00" startedHalts="0.00" meanVehicleNumber="0.20" maxVehicleNumber="2" />
   <interval begin="91.00" end="96.00" id="1" sampledSeconds="8.97" nVehEntered="1" nVehLeft="0" nVehSeen="2" meanSpeed="4.93" meanTimeLoss="3.16" meanOccupancy="18.00" maxOccupancy="20.00" meanMaxJamLengthInVehicles="0.60" meanMaxJamLengthInMeters="3.00" maxJamLengthInVehicles="1" maxJamLengthInMeters="5.00" jamLengthInVehiclesSum="3" jamLengthInMetersSum="15.00" meanHaltingDuration="4.00" maxHaltingDuration="4.00" haltingDurationSum="4.00" meanIntervalHaltingDuration="4.00" maxIntervalHaltingDuration="4.00" intervalHaltingDurationSum="4.00" startedHalts="1.00" meanVehicleNumber="1.80" maxVehicleNumber="2" />
   <interval begin="91.00" end="96.00" id="2" sampledSeconds="1.55" nVehEntered="0" nVehLeft="1" nVehSeen="1" meanSpeed="9.78" meanTimeLoss="0.37" meanOccupancy="1.80" maxOccupancy="9.02" meanMaxJamLengthInVehicles="0.00" meanMaxJamLengthInMeters="0.00" maxJamLengthInVehicles="0" maxJamLengthInMeters="0.00" jamLengthInVehiclesSum="0" jamLengthInMetersSum="0.00" meanHaltingDuration="0.00" maxHaltingDuration="0.00" haltingDurationSum="0.00" meanIntervalHaltingDuration="0.00" maxIntervalHaltingDuration="0.00" intervalHaltingDurationSum="0.00" startedHalts="0.00" meanVehicleNumber="0.40" maxVehicleNumber="1" />
   <interval begin="91.00" end="96.00" id="3" sampledSeconds="25.00" nVehEntered="0" nVehLeft="0" nVehSeen="5" meanSpeed="0.40" meanTimeLoss="4.88" meanOccupancy="50.00" maxOccupancy="50.00" meanMaxJamLengthInVehicles="4.40" meanMaxJamLengthInMeters="30.50" maxJamLengthInVehicles="5" maxJamLengthInMeters="35.01" jamLengthInVehiclesSum="22" jamLengthInMetersSum="152.52" meanHaltingDuration="29.80" maxHaltingDuration="44.00" haltingDurationSum="149.00" meanIntervalHaltingDuration="4.60" maxIntervalHaltingDuration="5.00" intervalHaltingDurationSum="23.00" startedHalts="1.00" meanVehicleNumber="5.00" maxVehicleNumber="5" />
   <interval begin="91.00" end="96.00" id="4" sampledSeconds="0.00" nVehEntered="0" nVehLeft="0" nVehSeen="0" meanSpeed="-1.00" meanTimeLoss="-1.00" meanOccupancy="0.00" maxOccupancy="0.00" meanMaxJamLengthInVehicles="0.00" meanMaxJamLengthInMeters="0.00" maxJamLengthInVehicles="0" maxJamLengthInMeters="0.00" jamLengthInVehiclesSum="0" jamLengthInMetersSum="0.00" meanHaltingDuration="0.00" maxHaltingDuration="0.00" haltingDurationSum="0.00" meanIntervalHaltingDuration="0.00" maxIntervalHaltingDuration="0.00" intervalHaltingDurationSum="0.00" startedHalts="0.00" meanVehicleNumber="0.00" maxVehicleNumber="0" />
   <interval begin="96.00" end="130.00" id="1" sampledSeconds="26.23" nVehEntered="3" nVehLeft="4" nVehSeen="5" meanSpeed="6.96" meanTimeLoss="2.57" meanOccupancy="6.16" maxOccupancy="20.00" meanMaxJamLengthInVehicles="0.09" meanMaxJamLengthInMeters="0.42" maxJamLengthInVehicles="1" maxJamLengthInMeters="5.00" jamLengthInVehiclesSum="3" jamLengthInMetersSum="14.40" meanHaltingDuration="4.00" maxHaltingDuration="5.00" haltingDurationSum="8.00" meanIntervalHaltingDuration="2.00" maxIntervalHaltingDuration="3.00" intervalHaltingDurationSum="4.00" startedHalts="1.00" meanVehicleNumber="0.88" maxVehicleNumber="3" />
   <interval begin="96.00" end="130.00" id="2" sampledSeconds="0.00" nVehEntered="0" nVehLeft="0" nVehSeen="0" meanSpeed="-1.00" meanTimeLoss="-1.00" meanOccupancy="0.00" maxOccupancy="0.00" meanMaxJamLengthInVehicles="0.00" meanMaxJamLengthInMeters="0.00" maxJamLengthInVehicles="0" maxJamLengthInMeters="0.00" jamLengthInVehiclesSum="0" jamLengthInMetersSum="0.00" meanHaltingDuration="0.00" maxHaltingDuration="0.00" haltingDurationSum="0.00" meanIntervalHaltingDuration="0.00" maxIntervalHaltingDuration="0.00" intervalHaltingDurationSum="0.00" startedHalts="0.00" meanVehicleNumber="0.00" maxVehicleNumber="0" />
   <interval begin="96.00" end="130.00" id="3" sampledSeconds="174.22" nVehEntered="4" nVehLeft="6" nVehSeen="9" meanSpeed="1.36" meanTimeLoss="17.56" meanOccupancy="45.51" maxOccupancy="60.00" meanMaxJamLengthInVehicles="2.97" meanMaxJamLengthInMeters="19.31" maxJamLengthInVehicles="6" maxJamLengthInMeters="37.75" jamLengthInVehiclesSum="104" jamLengthInMetersSum="662.25" meanHaltingDuration="20.58" maxHaltingDuration="46.00" haltingDurationSum="247.00" meanIntervalHaltingDuration="8.17" maxIntervalHaltingDuration="15.00" intervalHaltingDurationSum="98.00" startedHalts="8.00" meanVehicleNumber="5.24" maxVehicleNumber="6" />
   <interval begin="96.00" end="130.00" id="4" sampledSeconds="80.50" nVehEntered="5" nVehLeft="0" nVehSeen="5" meanSpeed="1.93" meanTimeLoss="14.23" meanOccupancy="24.21" maxOccupancy="42.98" meanMaxJamLengthInVehicles="1.79" meanMaxJamLengthInMeters="11.55" maxJamLengthInVehicles="4" maxJamLengthInMeters="27.51" jamLengthInVehiclesSum="61" jamLengthInMetersSum="392.62" meanHaltingDuration="16.25" maxHaltingDuration="27.00" haltingDurationSum="65.00" meanIntervalHaltingDuration="16.25" maxIntervalHaltingDuration="27.00" intervalHaltingDurationSum="65.00" startedHalts="4.00" meanVehicleNumber="2.44" maxVehicleNumber="5" />
   <interval begin="130.00" end="135.00" id="1" sampledSeconds="2.43" nVehEntered="0" nVehLeft="1" nVehSeen="1" meanSpeed="0.19" meanTimeLoss="2.36" meanOccupancy="0.19" maxOccupancy="0.51" meanMaxJamLengthInVehicles="0.40" meanMaxJamLengthInMeters="0.05" maxJamLengthInVehicles="1" maxJamLengthInMeters="0.23" jamLengthInVehiclesSum="2" jamLengthInMetersSum="0.23" meanHaltingDuration="0.00" maxHaltingDuration="0.00" haltingDurationSum="0.00" meanIntervalHaltingDuration="0.00" maxIntervalHaltingDuration="0.00" intervalHaltingDurationSum="0.00" startedHalts="1.00" meanVehicleNumber="0.60" maxVehicleNumber="1" />
   <interval begin="130.00" end="135.00" id="2" sampledSeconds="0.00" nVehEntered="0" nVehLeft="0" nVehSeen="0" meanSpeed="-1.00" meanTimeLoss="-1.00" meanOccupancy="0.00" maxOccupancy="0.00" meanMaxJamLengthInVehicles="0.00" meanMaxJamLengthInMeters="0.00" maxJamLengthInVehicles="0" maxJamLengthInMeters="0.00" jamLengthInVehiclesSum="0" jamLengthInMetersSum="0.00" meanHaltingDuration="0.00" maxHaltingDuration="0.00" haltingDurationSum="0.00" meanIntervalHaltingDuration="0.00" maxIntervalHaltingDuration="0.00" intervalHaltingDurationSum="0.00" startedHalts="0.00" meanVehicleNumber="0.00" maxVehicleNumber="0" />
   <interval begin="130.00" end="135.00" id="3" sampledSeconds="18.76" nVehEntered="1" nVehLeft="0" nVehSeen="4" meanSpeed="3.80" meanTimeLoss="3.61" meanOccupancy="38.00" maxOccupancy="40.00" meanMaxJamLengthInVehicles="0.60" meanMaxJamLengthInMeters="3.50" maxJamLengthInVehicles="2" maxJamLengthInMeters="12.51" jamLengthInVehiclesSum="3" jamLengthInMetersSum="17.51" meanHaltingDuration="2.00" maxHaltingDuration="3.00" haltingDurationSum="6.00" meanIntervalHaltingDuration="2.00" maxIntervalHaltingDuration="3.00" intervalHaltingDurationSum="6.00" startedHalts="3.00" meanVehicleNumber="3.80" maxVehicleNumber="4" />
   <interval begin="130.00" end="135.00" id="4" sampledSeconds="25.00" nVehEntered="0" nVehLeft="0" nVehSeen="5" meanSpeed="0.73" meanTimeLoss="4.78" meanOccupancy="50.00" maxOccupancy="50.00" meanMaxJamLengthInVehicles="4.20" meanMaxJamLengthInMeters="29.01" maxJamLengthInVehicles="5" maxJamLengthInMeters="35.03" jamLengthInVehiclesSum="21" jamLengthInMetersSum="145.04" meanHaltingDuration="17.40" maxHaltingDuration="32.00" haltingDurationSum="87.00" meanIntervalHaltingDuration="4.40" maxIntervalHaltingDuration="5.00" intervalHaltingDurationSum="22.00" startedHalts="1.00" meanVehicleNumber="5.00" maxVehicleNumber="5" />
   <interval begin="135.00" end="137.00" id="1" sampledSeconds="0.00" nVehEntered="0" nVehLeft="0" nVehSeen="0" meanSpeed="-1.00" meanTimeLoss="-1.00" meanOccupancy="0.00" maxOccupancy="0.00" meanMaxJamLengthInVehicles="0.00" meanMaxJamLengthInMeters="0.00" maxJamLengthInVehicles="0" maxJamLengthInMeters="0.00" jamLengthInVehiclesSum="0" jamLengthInMetersSum="0.00" meanHaltingDuration="0.00" maxHaltingDuration="0.00" haltingDurationSum="0.00" meanIntervalHaltingDuration="0.00" maxIntervalHaltingDuration="0.00" intervalHaltingDurationSum="0.00" startedHalts="0.00" meanVehicleNumber="0.00" maxVehicleNumber="0" />
   <interval begin="135.00" end="137.00" id="2" sampledSeconds="0.00" nVehEntered="0" nVehLeft="0" nVehSeen="0" meanSpeed="-1.00" meanTimeLoss="-1.00" meanOccupancy="0.00" maxOccupancy="0.00" meanMaxJamLengthInVehicles="0.00" meanMaxJamLengthInMeters="0.00" maxJamLengthInVehicles="0" maxJamLengthInMeters="0.00" jamLengthInVehiclesSum="0" jamLengthInMetersSum="0.00" meanHaltingDuration="0.00" maxHaltingDuration="0.00" haltingDurationSum="0.00" meanIntervalHaltingDuration="0.00" maxIntervalHaltingDuration="0.00" intervalHaltingDurationSum="0.00" startedHalts="0.00" meanVehicleNumber="0.00" maxVehicleNumber="0" />
   <interval begin="135.00" end="137.00" id="3" sampledSeconds="8.68" nVehEntered="1" nVehLeft="0" nVehSeen="5" meanSpeed="1.08" meanTimeLoss="1.62" meanOccupancy="45.00" maxOccupancy="50.00" meanMaxJamLengthInVehicles="3.50" meanMaxJamLengthInMeters="23.85" maxJamLengthInVehicles="4" maxJamLengthInMeters="27.60" jamLengthInVehiclesSum="7" jamLengthInMetersSum="47.70" meanHaltingDuration="3.50" maxHaltingDuration="5.00" haltingDurationSum="14.00" meanIntervalHaltingDuration="2.00" maxIntervalHaltingDuration="2.00" intervalHaltingDurationSum="8.00" startedHalts="1.00" meanVehicleNumber="4.50" maxVehicleNumber="5" />
   <interval begin="135.00" end="137.00" id="4" sampledSeconds="10.00" nVehEntered="0" nVehLeft="0" nVehSeen="5" meanSpeed="0.31" meanTimeLoss="1.93" meanOccupancy="47.33" maxOccupancy="48.80" meanMaxJamLengthInVehicles="4.50" meanMaxJamLengthInMeters="31.74" maxJamLengthInVehicles="5" maxJamLengthInMeters="35.22" jamLengthInVehiclesSum="9" jamLengthInMetersSum="63.49" meanHaltingDuration="19.20" maxHaltingDuration="33.00" haltingDurationSum="96.00" meanIntervalHaltingDuration="1.80" maxIntervalHaltingDuration="2.00" intervalHaltingDurationSum="9.00" startedHalts="0.00" meanVehicleNumber="5.00" maxVehicleNumber="5" />
   <interval begin="137.00" end="138.00" id="1" sampledSeconds="0.90" nVehEntered="1" nVehLeft="0" nVehSeen="1" meanSpeed="16.39" meanTimeLoss="0.01" meanOccupancy="10.00" maxOccupancy="10.00" meanMaxJamLengthInVehicles="0.00" meanMaxJamLengthInMeters="0.00" maxJamLengthInVehicles="0" maxJamLengthInMeters="0.00" jamLengthInVehiclesSum="0" jamLengthInMetersSum="0.00" meanHaltingDuration="0.00" maxHaltingDuration="0.00" haltingDurationSum="0.00" meanIntervalHaltingDuration="0.00" maxIntervalHaltingDuration="0.00" intervalHaltingDurationSum="0.00" startedHalts="0.00" meanVehicleNumber="1.00" maxVehicleNumber="1" />
   <interval begin="137.00" end="138.00" id="2" sampledSeconds="0.00" nVehEntered="0" nVehLeft="0" nVehSeen="0" meanSpeed="-1.00" meanTimeLoss="-1.00" meanOccupancy="0.00" maxOccupancy="0.00" meanMaxJamLengthInVehicles="0.00" meanMaxJamLengthInMeters="0.00" maxJamLengthInVehicles="0" maxJamLengthInMeters="0.00" jamLengthInVehiclesSum="0" jamLengthInMetersSum="0.00" meanHaltingDuration="0.00" maxHaltingDuration="0.00" haltingDurationSum="0.00" meanIntervalHaltingDuration="0.00" maxIntervalHaltingDuration="0.00" intervalHaltingDurationSum="0.00" startedHalts="0.00" meanVehicleNumber="0.00" maxVehicleNumber="0" />
   <interval begin="137.00" end="138.00" id="3" sampledSeconds="5.00" nVehEntered="0" nVehLeft="0" nVehSeen="5" meanSpeed="1.59" meanTimeLoss="0.90" meanOccupancy="50.00" maxOccupancy="50.00" meanMaxJamLengthInVehicles="4.00" meanMaxJamLengthInMeters="27.57" maxJamLengthInVehicles="4" maxJamLengthInMeters="27.57" jamLengthInVehiclesSum="4" jamLengthInMetersSum="27.57" meanHaltingDuration="4.50" maxHaltingDuration="6.00" haltingDurationSum="18.00" meanIntervalHaltingDuration="1.00" maxIntervalHaltingDuration="1.00" intervalHaltingDurationSum="4.00" startedHalts="0.00" meanVehicleNumber="5.00" maxVehicleNumber="5" />
   <interval begin="137.00" end="138.00" id="4" sampledSeconds="5.00" nVehEntered="0" nVehLeft="0" nVehSeen="5" meanSpeed="0.79" meanTimeLoss="0.90" meanOccupancy="41.62" maxOccupancy="41.62" meanMaxJamLengthInVehicles="3.00" meanMaxJamLengthInMeters="20.42" maxJamLengthInVehicles="3" maxJamLengthInMeters="20.42" jamLengthInVehiclesSum="3" jamLengthInMetersSum="20.42" meanHaltingDuration="16.50" maxHaltingDuration="27.00" haltingDurationSum="66.00" meanIntervalHaltingDuration="0.75" maxIntervalHaltingDuration="1.00" intervalHaltingDurationSum="3.00" startedHalts="0.00" meanVehicleNumber="5.00" maxVehicleNumber="5" />
   <interval begin="138.00" end="139.00" id="1" sampledSeconds="1.00" nVehEntered="0" nVehLeft="0" nVehSeen="1" meanSpeed="15.30" meanTimeLoss="0.08" meanOccupancy="10.00" maxOccupancy="10.00" meanMaxJamLengthInVehicles="0.00" meanMaxJamLengthInMeters="0.00" maxJamLengthInVehicles="0" maxJamLengthInMeters="0.00" jamLengthInVehiclesSum="0" jamLengthInMetersSum="0.00" meanHaltingDuration="0.00" maxHaltingDuration="0.00" haltingDurationSum="0.00" meanIntervalHaltingDuration="0.00" maxIntervalHaltingDuration="0.00" intervalHaltingDurationSum="0.00" startedHalts="0.00" meanVehicleNumber="1.00" maxVehicleNumber="1" />
   <interval begin="138.00" end="139.00" id="2" sampledSeconds="0.00" nVehEntered="0" nVehLeft="0" nVehSeen="0" meanSpeed="-1.00" meanTimeLoss="-1.00" meanOccupancy="0.00" maxOccupancy="0.00" meanMaxJamLengthInVehicles="0.00" meanMaxJamLengthInMeters="0.00" maxJamLengthInVehicles="0" maxJamLengthInMeters="0.00" jamLengthInVehiclesSum="0" jamLengthInMetersSum="0.00" meanHaltingDuration="0.00" maxHaltingDuration="0.00" haltingDurationSum="0.00" meanIntervalHaltingDuration="0.00" maxIntervalHaltingDuration="0.00" intervalHaltingDurationSum="0.00" startedHalts="0.00" meanVehicleNumber="0.00" maxVehicleNumber="0" />
   <interval begin="138.00" end="139.00" id="3" sampledSeconds="5.00" nVehEntered="0" nVehLeft="0" nVehSeen="5" meanSpeed="0.69" meanTimeLoss="0.96" meanOccupancy="50.00" maxOccupancy="50.00" meanMaxJamLengthInVehicles="4.00" meanMaxJamLengthInMeters="27.53" maxJamLengthInVehicles="4" maxJamLengthInMeters="27.53" jamLengthInVehiclesSum="4" jamLengthInMetersSum="27.53" meanHaltingDuration="5.50" maxHaltingDuration="7.00" haltingDurationSum="22.00" meanIntervalHaltingDuration="1.00" maxIntervalHaltingDuration="1.00" intervalHaltingDurationSum="4.00" startedHalts="0.00" meanVehicleNumber="5.00" maxVehicleNumber="5" />
   <interval begin="138.00" end="139.00" id="4" sampledSeconds="4.28" nVehEntered="0" nVehLeft="1" nVehSeen="5" meanSpeed="0.93" meanTimeLoss="0.79" meanOccupancy="40.00" maxOccupancy="40.00" meanMaxJamLengthInVehicles="3.00" meanMaxJamLengthInMeters="21.25" maxJamLengthInVehicles="3" maxJamLengthInMeters="21.25" jamLengthInVehiclesSum="3" jamLengthInMetersSum="21.25" meanHaltingDuration="14.00" maxHaltingDuration="21.00" haltingDurationSum="42.00" meanIntervalHaltingDuration="1.00" maxIntervalHaltingDuration="1.00" intervalHaltingDurationSum="3.00" startedHalts="0.00" meanVehicleNumber="5.00" maxVehicleNumber="5" />
   <interval begin="139.00" end="144.00" id="1" sampledSeconds="6.80" nVehEntered="1" nVehLeft="0" nVehSeen="2" meanSpeed="6.90" meanTimeLoss="1.99" meanOccupancy="14.00" maxOccupancy="20.00" meanMaxJamLengthInVehicles="0.20" meanMaxJamLengthInMeters="1.00" maxJamLengthInVehicles="1" maxJamLengthInMeters="5.00" jamLengthInVehiclesSum="1" jamLengthInMetersSum="5.00" meanHaltingDuration="2.00" maxHaltingDuration="2.00" haltingDurationSum="2.00" meanIntervalHaltingDuration="2.00" maxIntervalHaltingDuration="2.00" intervalHaltingDurationSum="2.00" startedHalts="1.00" meanVehicleNumber="1.40" maxVehicleNumber="2" />
   <interval begin="139.00" end="144.00" id="2" sampledSeconds="3.89" nVehEntered="1" nVehLeft="0" nVehSeen="1" meanSpeed="12.20" meanTimeLoss="1.04" meanOccupancy="8.00" maxOccupancy="10.00" meanMaxJamLengthInVehicles="0.00" meanMaxJamLengthInMeters="0.00" maxJamLengthInVehicles="0" maxJamLengthInMeters="0.00" jamLengthInVehiclesSum="0" jamLengthInMetersSum="0.00" meanHaltingDuration="0.00" maxHaltingDuration="0.00" haltingDurationSum="0.00" meanIntervalHaltingDuration="0.00" maxIntervalHaltingDuration="0.00" intervalHaltingDurationSum="0.00" startedHalts="0.00" meanVehicleNumber="0.80" maxVehicleNumber="1" />
   <interval begin="139.00" end="144.00" id="3" sampledSeconds="25.00" nVehEntered="0" nVehLeft="0" nVehSeen="5" meanSpeed="0.01" meanTimeLoss="5.00" meanOccupancy="50.00" maxOccupancy="50.00" meanMaxJamLengthInVehicles="4.80" meanMaxJamLengthInMeters="33.51" maxJamLengthInVehicles="5" maxJamLengthInMeters="35.02" jamLengthInVehiclesSum="24" jamLengthInMetersSum="167.56" meanHaltingDuration="9.40" maxHaltingDuration="12.00" haltingDurationSum="47.00" meanIntervalHaltingDuration="5.00" maxIntervalHaltingDuration="5.00" intervalHaltingDurationSum="25.00" startedHalts="1.00" meanVehicleNumber="5.00" maxVehicleNumber="5" />
   <interval begin="139.00" end="144.00" id="4" sampledSeconds="20.00" nVehEntered="0" nVehLeft="0" nVehSeen="4" meanSpeed="1.13" meanTimeLoss="4.66" meanOccupancy="40.00" maxOccupancy="40.00" meanMaxJamLengthInVehicles="1.60" meanMaxJamLengthInMeters="9.94" maxJamLengthInVehicles="2" maxJamLengthInMeters="13.91" jamLengthInVehiclesSum="9" jamLengthInMetersSum="54.68" meanHaltingDuration="9.00" maxHaltingDuration="21.00" haltingDurationSum="54.00" meanIntervalHaltingDuration="2.00" maxIntervalHaltingDuration="4.00" intervalHaltingDurationSum="12.00" startedHalts="3.00" meanVehicleNumber="4.00" maxVehicleNumber="4" />
   <interval begin="144.00" end="151.00" id="1" sampledSeconds="10.58" nVehEntered="0" nVehLeft="1" nVehSeen="2" meanSpeed="3.04" meanTimeLoss="3.96" meanOccupancy="11.05" maxOccupancy="18.77" meanMaxJamLengthInVehicles="0.29" meanMaxJamLengthInMeters="1.07" maxJamLengthInVehicles="1" maxJamLengthInMeters="4.39" jamLengthInVehiclesSum="2" jamLengthInMetersSum="7.50" meanHaltingDuration="4.00" maxHaltingDuration="4.00" haltingDurationSum="4.00" meanIntervalHaltingDuration="2.00" maxIntervalHaltingDuration="2.00" intervalHaltingDurationSum="2.00" startedHalts="0.00" meanVehicleNumber="1.57" maxVehicleNumber="2" />
   <interval begin="144.00" end="151.00" id="2" sampledSeconds="14.18" nVehEntered="2" nVehLeft="0" nVehSeen="3" meanSpeed="4.45" meanTimeLoss="3.46" meanOccupancy="21.29" maxOccupancy="30.00" meanMaxJamLengthInVehicles="0.86" meanMaxJamLengthInMeters="4.64" maxJamLengthInVehicles="2" maxJamLengthInMeters="12.51" jamLengthInVehiclesSum="6" jamLengthInMetersSum="32.51" meanHaltingDuration="4.00" maxHaltingDuration="6.00" haltingDurationSum="8.00" meanIntervalHaltingDuration="4.00" maxIntervalHaltingDuration="6.00" intervalHaltingDurationSum="8.00" startedHalts="2.00" meanVehicleNumber="2.14" maxVehicleNumber="3" />
   <interval begin="144.00" end="151.00" id="3" sampledSeconds="31.55" nVehEntered="0" nVehLeft="1" nVehSeen="5" meanSpeed="0.99" meanTimeLoss="5.73" meanOccupancy="40.99" maxOccupancy="48.80" meanMaxJamLengthInVehicles="3.14" meanMaxJamLengthInMeters="21.86" maxJamLengthInVehicles="5" maxJamLengthInMeters="35.21" jamLengthInVehiclesSum="22" jamLengthInMetersSum="153.01" meanHaltingDuration="13.80" maxHaltingDuration="15.00" haltingDurationSum="69.00" meanIntervalHaltingDuration="4.40" maxIntervalHaltingDuration="7.00" intervalHaltingDurationSum="22.00" startedHalts="0.00" meanVehicleNumber="4.57" maxVehicleNumber="5" />
   <interval begin="144.00" end="151.00" id="4" sampledSeconds="28.04" nVehEntered="1" nVehLeft="0" nVehSeen="5" meanSpeed="0.08" meanTimeLoss="5.58" meanOccupancy="40.18" maxOccupancy="41.26" meanMaxJamLengthInVehicles="3.86" meanMaxJamLengthInMeters="26.52" maxJamLengthInVehicles="4" maxJamLengthInMeters="27.82" jamLengthInVehiclesSum="27" jamLengthInMetersSum="185.66" meanHaltingDuration="8.75" maxHaltingDuration="11.00" haltingDurationSum="35.00" meanIntervalHaltingDuration="7.00" maxIntervalHaltingDuration="7.00" intervalHaltingDurationSum="28.00" startedHalts="1.00" meanVehicleNumber="4.14" maxVehicleNumber="5" />
   <interval begin="151.00" end="156.00" id="1" sampledSeconds="4.63" nVehEntered="1" nVehLeft="1" nVehSeen="2" meanSpeed="10.93" meanTimeLoss="0.77" meanOccupancy="10.00" maxOccupancy="10.00" meanMaxJamLengthInVehicles="0.00" meanMaxJamLengthInMeters="0.00" maxJamLengthInVehicles="0" maxJamLengthInMeters="0.00" jamLengthInVehiclesSum="0" jamLengthInMetersSum="0.00" meanHaltingDuration="0.00" maxHaltingDuration="0.00" haltingDurationSum="0.00" meanIntervalHaltingDuration="0.00" maxIntervalHaltingDuration="0.00" intervalHaltingDurationSum="0.00" startedHalts="0.00" meanVehicleNumber="1.20" maxVehicleNumber="2" />
   <interval begin="151.00" end="156.00" id="2" sampledSeconds="15.00" nVehEntered="0" nVehLeft="0" nVehSeen="3" meanSpeed="1.09" meanTimeLoss="4.67" meanOccupancy="30.00" maxOccupancy="30.00" meanMaxJamLengthInVehicles="2.40" meanMaxJamLengthInMeters="15.51" maxJamLengthInVehicles="3" maxJamLengthInMeters="20.02" jamLengthInVehiclesSum="12" jamLengthInMetersSum="77.54" meanHaltingDuration="7.00" maxHaltingDuration="11.00" haltingDurationSum="21.00" meanIntervalHaltingDuration="4.33" maxIntervalHaltingDuration="5.00" intervalHaltingDurationSum="13.00" startedHalts="1.00" meanVehicleNumber="3.00" maxVehicleNumber="3" />
   <interval begin="151.00" end="156.00" id="3" sampledSeconds="17.31" nVehEntered="1" nVehLeft="1" nVehSeen="5" meanSpeed="3.02" meanTimeLoss="2.82" meanOccupancy="34.93" maxOccupancy="40.00" meanMaxJamLengthInVehicles="0.60" meanMaxJamLengthInMeters="3.51" maxJamLengthInVehicles="2" maxJamLengthInMeters="12.57" jamLengthInVehiclesSum="3" jamLengthInMetersSum="17.57" meanHaltingDuration="5.67" maxHaltingDuration="12.00" haltingDurationSum="17.00" meanIntervalHaltingDuration="1.67" maxIntervalHaltingDuration="3.00" intervalHaltingDurationSum="5.00" startedHalts="2.00" meanVehicleNumber="3.80" maxVehicleNumber="4" />
   <interval begin="151.00" end="156.00" id="4" sampledSeconds="25.00" nVehEntered="0" nVehLeft="0" nVehSeen="5" meanSpeed="0.77" meanTimeLoss="4.77" meanOccupancy="50.00" maxOccupancy="50.00" meanMaxJamLengthInVehicles="4.20" meanMaxJamLengthInMeters="29.00" maxJamLengthInVehicles="5" maxJamLengthInMeters="35.01" jamLengthInVehiclesSum="21" jamLengthInMetersSum="145.02" meanHaltingDuration="11.40" maxHaltingDuration="16.00" haltingDurationSum="57.00" meanIntervalHaltingDuration="4.40" maxIntervalHaltingDuration="5.00" intervalHaltingDurationSum="22.00" startedHalts="1.00" meanVehicleNumber="5.00" maxVehicleNumber="5" />
   <interval begin="156.00" end="163.00" id="1" sampledSeconds="11.73" nVehEntered="1" nVehLeft="0" nVehSeen="2" meanSpeed="3.61" meanTimeLoss="4.59" meanOccupancy="17.14" maxOccupancy="20.00" meanMaxJamLengthInVehicles="0.86" meanMaxJamLengthInMeters="4.29" maxJamLengthInVehicles="1" maxJamLengthInMeters="5.00" jamLengthInVehiclesSum="6" jamLengthInMetersSum="30.00" meanHaltingDuration="4.00" maxHaltingDuration="7.00" haltingDurationSum="8.00" meanIntervalHaltingDuration="4.00" maxIntervalHaltingDuration="7.00" intervalHaltingDurationSum="8.00" startedHalts="2.00" meanVehicleNumber="1.71" maxVehicleNumber="2" />
   <interval begin="156.00" end="163.00" id="2" sampledSeconds="17.16" nVehEntered="0" nVehLeft="2" nVehSeen="3" meanSpeed="1.46" meanTimeLoss="4.94" meanOccupancy="20.40" maxOccupancy="28.80" meanMaxJamLengthInVehicles="1.43" meanMaxJamLengthInMeters="9.17" maxJamLengthInVehicles="3" maxJamLengthInMeters="20.21" jamLengthInVehiclesSum="10" jamLengthInMetersSum="64.22" meanHaltingDuration="10.33" maxHaltingDuration="13.00" haltingDurationSum="31.00" meanIntervalHaltingDuration="3.33" maxIntervalHaltingDuration="5.00" intervalHaltingDurationSum="10.00" startedHalts="0.00" meanVehicleNumber="2.57" maxVehicleNumber="3" />
   <interval begin="156.00" end="163.00" id="3" sampledSeconds="28.97" nVehEntered="1" nVehLeft="0" nVehSeen="5" meanSpeed="0.61" meanTimeLoss="5.58" meanOccupancy="41.43" maxOccupancy="50.00" meanMaxJamLengthInVehicles="3.57" meanMaxJamLengthInMeters="24.32" maxJamLengthInVehicles="4" maxJamLengthInMeters="27.61" jamLengthInVehiclesSum="25" jamLengthInMetersSum="170.23" meanHaltingDuration="8.00" maxHaltingDuration="10.00" haltingDurationSum="32.00" meanIntervalHaltingDuration="6.75" maxIntervalHaltingDuration="7.00" intervalHaltingDurationSum="27.00" startedHalts="2.00" meanVehicleNumber="4.14" maxVehicleNumber="5" />
   <interval begin="156.00" end="163.00" id="4" sampledSeconds="35.00" nVehEntered="0" nVehLeft="0" nVehSeen="5" meanSpeed="0.59" meanTimeLoss="6.71" meanOccupancy="42.84" maxOccupancy="49.02" meanMaxJamLengthInVehicles="3.00" meanMaxJamLengthInMeters="20.09" maxJamLengthInVehicles="5" maxJamLengthInMeters="35.21" jamLengthInVehiclesSum="25" jamLengthInMetersSum="153.72" meanHaltingDuration="10.62" maxHaltingDuration="18.00" haltingDurationSum="85.00" meanIntervalHaltingDuration="3.50" maxIntervalHaltingDuration="7.00" intervalHaltingDurationSum="28.00" startedHalts="3.00" meanVehicleNumber="5.00" maxVehicleNumber="5" />
   <interval begin="163.00" end="164.00" id="1" sampledSeconds="2.98" nVehEntered="1" nVehLeft="0" nVehSeen="3" meanSpeed="5.06" meanTimeLoss="0.69" meanOccupancy="30.00" maxOccupancy="30.00" meanMaxJamLengthInVehicles="2.00" meanMaxJamLengthInMeters="12.51" maxJamLengthInVehicles="2" maxJamLengthInMeters="12.51" jamLengthInVehiclesSum="2" jamLengthInMetersSum="12.51" meanHaltingDuration="5.00" maxHaltingDuration="8.00" haltingDurationSum="10.00" meanIntervalHaltingDuration="1.00" maxIntervalHaltingDuration="1.00" intervalHaltingDurationSum="2.00" startedHalts="0.00" meanVehicleNumber="3.00" maxVehicleNumber="3" />
   <interval begin="163.00" end="164.00" id="2" sampledSeconds="1.00" nVehEntered="0" nVehLeft="0" nVehSeen="1" meanSpeed="3.14" meanTimeLoss="0.81" meanOccupancy="10.00" maxOccupancy="10.00" meanMaxJamLengthInVehicles="0.00" meanMaxJamLengthInMeters="0.00" maxJamLengthInVehicles="0" maxJamLengthInMeters="0.00" jamLengthInVehiclesSum="0" jamLengthInMetersSum="0.00" meanHaltingDuration="0.00" maxHaltingDuration="0.00" haltingDurationSum="0.00" meanIntervalHaltingDuration="0.00" maxIntervalHaltingDuration="0.00" intervalHaltingDurationSum="0.00" startedHalts="0.00" meanVehicleNumber="1.00" maxVehicleNumber="1" />